<?xml version="1.0"?>
<VTKFile type="UnstructuredGrid" version="0.1" byte_order="LittleEndian" compressor="vtkZLibDataCompressor">
  <UnstructuredGrid>
    <Piece NumberOfPoints="52" NumberOfCells="91">
      <Points>
        <DataArray type="Float32" NumberOfComponents="3" format="ascii">
          2.309e+04 -8.890e+03 1.850e+04
          2.393e+04 -1.035e+04 1.850e+04
          2.363e+04 -7.435e+03 1.850e+04
          2.447e+04 -8.898e+03 1.850e+04
          2.531e+04 -1.036e+04 1.850e+04
          2.334e+04 -4.516e+03 1.850e+04
          2.418e+04 -5.979e+03 1.850e+04
          2.502e+04 -7.443e+03 1.850e+04
          2.586e+04 -8.907e+03 1.850e+04
          2.670e+04 -1.037e+04 1.850e+04
          2.389e+04 -3.060e+03 1.850e+04
          2.473e+04 -4.524e+03 1.850e+04
          2.557e+04 -5.988e+03 1.850e+04
          2.641e+04 -7.451e+03 1.850e+04
          2.725e+04 -8.915e+03 1.850e+04
          2.809e+04 -1.038e+04 1.850e+04
          2.528e+04 -3.069e+03 1.850e+04
          2.612e+04 -4.532e+03 1.850e+04
          2.696e+04 -5.996e+03 1.850e+04
          2.780e+04 -7.460e+03 1.850e+04
          2.864e+04 -8.923e+03 1.850e+04
          2.948e+04 -1.039e+04 1.850e+04
          2.666e+04 -3.077e+03 1.850e+04
          2.750e+04 -4.541e+03 1.850e+04
          2.835e+04 -6.004e+03 1.850e+04
          2.919e+04 -7.468e+03 1.850e+04
          3.003e+04 -8.931e+03 1.850e+04
          3.087e+04 -1.040e+04 1.850e+04
          2.805e+04 -3.085e+03 1.850e+04
          2.889e+04 -4.549e+03 1.850e+04
          2.973e+04 -6.013e+03 1.850e+04
          3.057e+04 -7.476e+03 1.850e+04
          3.141e+04 -8.940e+03 1.850e+04
          3.225e+04 -1.040e+04 1.850e+04
          2.944e+04 -3.094e+03 1.850e+04
          3.028e+04 -4.557e+03 1.850e+04
          3.112e+04 -6.021e+03 1.850e+04
          3.196e+04 -7.484e+03 1.850e+04
          3.280e+04 -8.948e+03 1.850e+04
          3.364e+04 -1.041e+04 1.850e+04
          3.083e+04 -3.102e+03 1.850e+04
          3.167e+04 -4.565e+03 1.850e+04
          3.251e+04 -6.029e+03 1.850e+04
          3.335e+04 -7.493e+03 1.850e+04
          3.419e+04 -8.956e+03 1.850e+04
          3.222e+04 -3.110e+03 1.850e+04
          3.306e+04 -4.574e+03 1.850e+04
          3.390e+04 -6.037e+03 1.850e+04
          3.474e+04 -7.501e+03 1.850e+04
          3.360e+04 -3.118e+03 1.850e+04
          3.444e+04 -4.582e+03 1.850e+04
          3.499e+04 -3.127e+03 1.850e+04
        </DataArray>
      </Points>
      <Cells>
        <DataArray type="Int32" Name="connectivity" format="ascii">
           19 24 18
           4 1 21
           1 4 3
           15 14 9
           7 3 8
           23 17 18
           7 8 13
           14 13 8
           7 2 3
           28 34 22
           16 11 17
           28 23 29
           36 41 35
           30 25 31
           37 42 36
           15 20 14
           31 37 36
           15 21 20
           32 37 31
           20 21 26
           38 43 37
           4 21 9
           41 40 35
           1 3 0
           8 4 9
           8 3 4
           9 14 8
           20 19 14
           21 15 9
           21 27 26
           14 19 13
           20 26 25
           18 24 23
           31 26 32
           0 2 5
           0 3 2
           18 12 13
           12 6 7
           11 12 17
           13 19 18
           2 6 5
           2 7 6
           6 11 5
           6 12 11
           10 5 11
           16 10 11
           22 16 17
           40 22 34
           17 23 22
           29 35 34
           13 12 7
           18 17 12
           30 29 24
           28 22 23
           28 29 34
           23 24 29
           29 30 35
           24 19 25
           30 36 35
           50 47 48
           35 40 34
           45 22 40
           42 41 36
           45 40 41
           46 45 41
           49 22 45
           46 49 45
           51 22 49
           48 51 50
           38 44 43
           46 41 42
           47 46 42
           50 49 46
           49 50 51
           38 37 32
           46 47 50
           42 37 43
           44 48 43
           24 25 30
           19 20 25
           30 31 36
           25 26 31
           47 43 48
           47 42 43
           27 21 39
           33 27 39
           32 26 27
           38 33 39
           32 27 33
           33 38 32
           39 44 38
        </DataArray>
        <DataArray type="Int32" Name="offsets" format="ascii">
           3
           6
           9
           12
           15
           18
           21
           24
           27
           30
           33
           36
           39
           42
           45
           48
           51
           54
           57
           60
           63
           66
           69
           72
           75
           78
           81
           84
           87
           90
           93
           96
           99
           102
           105
           108
           111
           114
           117
           120
           123
           126
           129
           132
           135
           138
           141
           144
           147
           150
           153
           156
           159
           162
           165
           168
           171
           174
           177
           180
           183
           186
           189
           192
           195
           198
           201
           204
           207
           210
           213
           216
           219
           222
           225
           228
           231
           234
           237
           240
           243
           246
           249
           252
           255
           258
           261
           264
           267
           270
           273
        </DataArray>
        <DataArray type="UInt8" Name="types" format="ascii">
           5
           5
           5
           5
           5
           5
           5
           5
           5
           5
           5
           5
           5
           5
           5
           5
           5
           5
           5
           5
           5
           5
           5
           5
           5
           5
           5
           5
           5
           5
           5
           5
           5
           5
           5
           5
           5
           5
           5
           5
           5
           5
           5
           5
           5
           5
           5
           5
           5
           5
           5
           5
           5
           5
           5
           5
           5
           5
           5
           5
           5
           5
           5
           5
           5
           5
           5
           5
           5
           5
           5
           5
           5
           5
           5
           5
           5
           5
           5
           5
           5
           5
           5
           5
           5
           5
           5
           5
           5
           5
           5
        </DataArray>
      </Cells>
      <PointData Scalars="wavelength">
        <DataArray type="Float32" Name="wavelength" NumberOfComponents="1" format="ascii">
          5.200e+02
          5.200e+02
          5.200e+02
          5.200e+02
          5.200e+02
          5.200e+02
          5.200e+02
          5.200e+02
          5.200e+02
          5.200e+02
          5.200e+02
          5.200e+02
          5.200e+02
          5.200e+02
          5.200e+02
          5.200e+02
          5.200e+02
          5.200e+02
          5.200e+02
          5.200e+02
          5.200e+02
          5.200e+02
          5.200e+02
          5.200e+02
          5.200e+02
          5.200e+02
          5.200e+02
          5.200e+02
          5.200e+02
          5.200e+02
          5.200e+02
          5.200e+02
          5.200e+02
          5.200e+02
          5.200e+02
          5.200e+02
          5.200e+02
          5.200e+02
          5.200e+02
          5.200e+02
          5.200e+02
          5.200e+02
          5.200e+02
          5.200e+02
          5.200e+02
          5.200e+02
          5.200e+02
          5.200e+02
          5.200e+02
          5.200e+02
          5.200e+02
          5.200e+02
        </DataArray>
        <DataArray type="Float32" Name="kstate" NumberOfComponents="1" format="ascii">
          0.000e+00
          0.000e+00
          0.000e+00
          0.000e+00
          0.000e+00
          0.000e+00
          0.000e+00
          0.000e+00
          0.000e+00
          0.000e+00
          0.000e+00
          0.000e+00
          0.000e+00
          0.000e+00
          0.000e+00
          0.000e+00
          0.000e+00
          0.000e+00
          0.000e+00
          0.000e+00
          0.000e+00
          0.000e+00
          0.000e+00
          0.000e+00
          0.000e+00
          0.000e+00
          0.000e+00
          0.000e+00
          0.000e+00
          0.000e+00
          0.000e+00
          0.000e+00
          0.000e+00
          0.000e+00
          0.000e+00
          0.000e+00
          0.000e+00
          0.000e+00
          0.000e+00
          0.000e+00
          0.000e+00
          0.000e+00
          0.000e+00
          0.000e+00
          0.000e+00
          0.000e+00
          0.000e+00
          0.000e+00
          0.000e+00
          0.000e+00
          0.000e+00
          0.000e+00
        </DataArray>
        <DataArray type="Float32" Name="TIRPower" NumberOfComponents="1" format="ascii">
          9.703e-06
          4.117e-08
          4.295e-06
          4.657e-08
          3.160e-08
          2.203e-07
          5.028e-08
          3.687e-06
          7.842e-08
          6.474e-06
          2.285e-07
          2.484e-07
          9.853e-08
          2.964e-06
          9.805e-08
          5.131e-06
          3.169e-07
          2.993e-07
          1.165e-07
          2.376e-06
          8.480e-08
          3.877e-06
          4.041e-07
          3.407e-07
          9.773e-08
          2.069e-06
          6.758e-08
          2.845e-06
          4.371e-07
          3.393e-07
          9.428e-08
          1.757e-06
          4.848e-08
          2.253e-06
          4.186e-07
          3.161e-07
          8.292e-08
          1.469e-06
          4.837e-08
          1.980e-06
          3.710e-07
          2.762e-07
          6.762e-08
          1.159e-06
          3.874e-08
          3.038e-07
          2.234e-07
          4.905e-08
          8.674e-07
          2.364e-07
          1.687e-07
          1.675e-07
        </DataArray>
        <DataArray type="Float32" Name="TIRPower-TE" NumberOfComponents="1" format="ascii">
          6.662e-06
          7.894e-14
          4.089e-06
          4.657e-08
          7.174e-14
          6.018e-08
          1.084e-13
          3.495e-06
          7.842e-08
          2.819e-06
          1.062e-07
          1.268e-07
          6.051e-08
          2.805e-06
          9.805e-08
          2.356e-06
          2.198e-07
          1.946e-07
          8.743e-08
          2.252e-06
          8.480e-08
          2.009e-06
          2.991e-07
          2.227e-07
          9.773e-08
          1.966e-06
          6.758e-08
          1.602e-06
          3.194e-07
          2.158e-07
          9.428e-08
          1.688e-06
          4.848e-08
          1.359e-06
          2.995e-07
          1.907e-07
          8.292e-08
          1.418e-06
          4.837e-08
          1.157e-06
          2.565e-07
          1.529e-07
          6.762e-08
          1.111e-06
          3.874e-08
          2.062e-07
          1.136e-07
          4.905e-08
          8.315e-07
          1.485e-07
          7.224e-08
          9.547e-08
        </DataArray>
        <DataArray type="Float32" Name="TIRPower-TM" NumberOfComponents="1" format="ascii">
          3.040e-06
          4.117e-08
          2.065e-07
          1.008e-13
          3.160e-08
          1.602e-07
          5.028e-08
          1.921e-07
          2.007e-13
          3.655e-06
          1.223e-07
          1.217e-07
          3.801e-08
          1.590e-07
          2.940e-13
          2.775e-06
          9.710e-08
          1.047e-07
          2.908e-08
          1.246e-07
          2.271e-13
          1.869e-06
          1.050e-07
          1.180e-07
          2.827e-13
          1.026e-07
          1.558e-13
          1.244e-06
          1.177e-07
          1.235e-07
          2.758e-13
          6.899e-08
          8.974e-14
          8.942e-07
          1.190e-07
          1.255e-07
          2.484e-13
          5.094e-08
          1.097e-13
          8.229e-07
          1.146e-07
          1.233e-07
          2.087e-13
          4.768e-08
          1.103e-13
          9.751e-08
          1.097e-07
          1.565e-13
          3.587e-08
          8.790e-08
          9.642e-08
          7.204e-08
        </DataArray>
        <DataArray type="Float32" Name="step" NumberOfComponents="1" format="ascii">
          2.000e+01
          2.200e+01
          2.000e+01
          2.200e+01
          2.300e+01
          2.000e+01
          2.100e+01
          2.100e+01
          2.300e+01
          2.300e+01
          2.000e+01
          2.100e+01
          2.200e+01
          2.200e+01
          2.400e+01
          2.400e+01
          2.100e+01
          2.200e+01
          2.300e+01
          2.300e+01
          2.500e+01
          2.500e+01
          2.200e+01
          2.300e+01
          2.400e+01
          2.400e+01
          2.600e+01
          2.600e+01
          2.300e+01
          2.400e+01
          2.500e+01
          2.500e+01
          2.700e+01
          2.700e+01
          2.400e+01
          2.500e+01
          2.600e+01
          2.600e+01
          2.800e+01
          2.800e+01
          2.500e+01
          2.600e+01
          2.700e+01
          2.700e+01
          2.900e+01
          2.600e+01
          2.700e+01
          2.800e+01
          2.800e+01
          2.700e+01
          2.800e+01
          2.800e+01
        </DataArray>
      </PointData>
    </Piece>
  </UnstructuredGrid>
</VTKFile>
