<?xml version="1.0"?>
<VTKFile type="UnstructuredGrid" version="0.1" byte_order="LittleEndian" compressor="vtkZLibDataCompressor">
  <UnstructuredGrid>
    <Piece NumberOfPoints="52" NumberOfCells="91">
      <Points>
        <DataArray type="Float32" NumberOfComponents="3" format="ascii">
          2.309e+04 -8.890e+03 -1.800e+04
          2.393e+04 -1.035e+04 -1.800e+04
          2.363e+04 -7.435e+03 -1.800e+04
          2.447e+04 -8.898e+03 -1.800e+04
          2.531e+04 -1.036e+04 -1.800e+04
          2.334e+04 -4.516e+03 -1.800e+04
          2.418e+04 -5.979e+03 -1.800e+04
          2.502e+04 -7.443e+03 -1.800e+04
          2.586e+04 -8.907e+03 -1.800e+04
          2.670e+04 -1.037e+04 -1.800e+04
          2.389e+04 -3.060e+03 -1.800e+04
          2.473e+04 -4.524e+03 -1.800e+04
          2.557e+04 -5.988e+03 -1.800e+04
          2.641e+04 -7.451e+03 -1.800e+04
          2.725e+04 -8.915e+03 -1.800e+04
          2.809e+04 -1.038e+04 -1.800e+04
          2.528e+04 -3.069e+03 -1.800e+04
          2.612e+04 -4.532e+03 -1.800e+04
          2.696e+04 -5.996e+03 -1.800e+04
          2.780e+04 -7.460e+03 -1.800e+04
          2.864e+04 -8.923e+03 -1.800e+04
          2.948e+04 -1.039e+04 -1.800e+04
          2.666e+04 -3.077e+03 -1.800e+04
          2.750e+04 -4.541e+03 -1.800e+04
          2.835e+04 -6.004e+03 -1.800e+04
          2.919e+04 -7.468e+03 -1.800e+04
          3.003e+04 -8.931e+03 -1.800e+04
          3.087e+04 -1.040e+04 -1.800e+04
          2.805e+04 -3.085e+03 -1.800e+04
          2.889e+04 -4.549e+03 -1.800e+04
          2.973e+04 -6.013e+03 -1.800e+04
          3.057e+04 -7.476e+03 -1.800e+04
          3.141e+04 -8.940e+03 -1.800e+04
          3.225e+04 -1.040e+04 -1.800e+04
          2.944e+04 -3.094e+03 -1.800e+04
          3.028e+04 -4.557e+03 -1.800e+04
          3.112e+04 -6.021e+03 -1.800e+04
          3.196e+04 -7.484e+03 -1.800e+04
          3.280e+04 -8.948e+03 -1.800e+04
          3.364e+04 -1.041e+04 -1.800e+04
          3.083e+04 -3.102e+03 -1.800e+04
          3.167e+04 -4.565e+03 -1.800e+04
          3.251e+04 -6.029e+03 -1.800e+04
          3.335e+04 -7.493e+03 -1.800e+04
          3.419e+04 -8.956e+03 -1.800e+04
          3.222e+04 -3.110e+03 -1.800e+04
          3.306e+04 -4.574e+03 -1.800e+04
          3.390e+04 -6.037e+03 -1.800e+04
          3.474e+04 -7.501e+03 -1.800e+04
          3.360e+04 -3.118e+03 -1.800e+04
          3.444e+04 -4.582e+03 -1.800e+04
          3.499e+04 -3.127e+03 -1.800e+04
        </DataArray>
      </Points>
      <Cells>
        <DataArray type="Int32" Name="connectivity" format="ascii">
           19 24 18
           4 1 21
           1 4 3
           15 14 9
           7 3 8
           23 17 18
           7 8 13
           14 13 8
           7 2 3
           28 34 22
           16 11 17
           28 23 29
           36 41 35
           30 25 31
           37 42 36
           15 20 14
           31 37 36
           15 21 20
           32 37 31
           20 21 26
           38 43 37
           4 21 9
           41 40 35
           1 3 0
           8 4 9
           8 3 4
           9 14 8
           20 19 14
           21 15 9
           21 27 26
           14 19 13
           20 26 25
           18 24 23
           31 26 32
           0 2 5
           0 3 2
           18 12 13
           12 6 7
           11 12 17
           13 19 18
           2 6 5
           2 7 6
           6 11 5
           6 12 11
           10 5 11
           16 10 11
           22 16 17
           40 22 34
           17 23 22
           29 35 34
           13 12 7
           18 17 12
           30 29 24
           28 22 23
           28 29 34
           23 24 29
           29 30 35
           24 19 25
           30 36 35
           50 47 48
           35 40 34
           45 22 40
           42 41 36
           45 40 41
           46 45 41
           49 22 45
           46 49 45
           51 22 49
           48 51 50
           38 44 43
           46 41 42
           47 46 42
           50 49 46
           49 50 51
           38 37 32
           46 47 50
           42 37 43
           44 48 43
           24 25 30
           19 20 25
           30 31 36
           25 26 31
           47 43 48
           47 42 43
           27 21 39
           33 27 39
           32 26 27
           38 33 39
           32 27 33
           33 38 32
           39 44 38
        </DataArray>
        <DataArray type="Int32" Name="offsets" format="ascii">
           3
           6
           9
           12
           15
           18
           21
           24
           27
           30
           33
           36
           39
           42
           45
           48
           51
           54
           57
           60
           63
           66
           69
           72
           75
           78
           81
           84
           87
           90
           93
           96
           99
           102
           105
           108
           111
           114
           117
           120
           123
           126
           129
           132
           135
           138
           141
           144
           147
           150
           153
           156
           159
           162
           165
           168
           171
           174
           177
           180
           183
           186
           189
           192
           195
           198
           201
           204
           207
           210
           213
           216
           219
           222
           225
           228
           231
           234
           237
           240
           243
           246
           249
           252
           255
           258
           261
           264
           267
           270
           273
        </DataArray>
        <DataArray type="UInt8" Name="types" format="ascii">
           5
           5
           5
           5
           5
           5
           5
           5
           5
           5
           5
           5
           5
           5
           5
           5
           5
           5
           5
           5
           5
           5
           5
           5
           5
           5
           5
           5
           5
           5
           5
           5
           5
           5
           5
           5
           5
           5
           5
           5
           5
           5
           5
           5
           5
           5
           5
           5
           5
           5
           5
           5
           5
           5
           5
           5
           5
           5
           5
           5
           5
           5
           5
           5
           5
           5
           5
           5
           5
           5
           5
           5
           5
           5
           5
           5
           5
           5
           5
           5
           5
           5
           5
           5
           5
           5
           5
           5
           5
           5
           5
        </DataArray>
      </Cells>
      <PointData Scalars="wavelength">
        <DataArray type="Float32" Name="wavelength" NumberOfComponents="1" format="ascii">
          5.200e+02
          5.200e+02
          5.200e+02
          5.200e+02
          5.200e+02
          5.200e+02
          5.200e+02
          5.200e+02
          5.200e+02
          5.200e+02
          5.200e+02
          5.200e+02
          5.200e+02
          5.200e+02
          5.200e+02
          5.200e+02
          5.200e+02
          5.200e+02
          5.200e+02
          5.200e+02
          5.200e+02
          5.200e+02
          5.200e+02
          5.200e+02
          5.200e+02
          5.200e+02
          5.200e+02
          5.200e+02
          5.200e+02
          5.200e+02
          5.200e+02
          5.200e+02
          5.200e+02
          5.200e+02
          5.200e+02
          5.200e+02
          5.200e+02
          5.200e+02
          5.200e+02
          5.200e+02
          5.200e+02
          5.200e+02
          5.200e+02
          5.200e+02
          5.200e+02
          5.200e+02
          5.200e+02
          5.200e+02
          5.200e+02
          5.200e+02
          5.200e+02
          5.200e+02
        </DataArray>
        <DataArray type="Float32" Name="kstate" NumberOfComponents="1" format="ascii">
          0.000e+00
          0.000e+00
          0.000e+00
          0.000e+00
          0.000e+00
          0.000e+00
          0.000e+00
          0.000e+00
          0.000e+00
          0.000e+00
          0.000e+00
          0.000e+00
          0.000e+00
          0.000e+00
          0.000e+00
          0.000e+00
          0.000e+00
          0.000e+00
          0.000e+00
          0.000e+00
          0.000e+00
          0.000e+00
          0.000e+00
          0.000e+00
          0.000e+00
          0.000e+00
          0.000e+00
          0.000e+00
          0.000e+00
          0.000e+00
          0.000e+00
          0.000e+00
          0.000e+00
          0.000e+00
          0.000e+00
          0.000e+00
          0.000e+00
          0.000e+00
          0.000e+00
          0.000e+00
          0.000e+00
          0.000e+00
          0.000e+00
          0.000e+00
          0.000e+00
          0.000e+00
          0.000e+00
          0.000e+00
          0.000e+00
          0.000e+00
          0.000e+00
          0.000e+00
        </DataArray>
        <DataArray type="Float32" Name="TIRPower" NumberOfComponents="1" format="ascii">
          1.079e-04
          8.704e-05
          3.943e-05
          9.722e-05
          7.405e-05
          4.365e-04
          1.542e-04
          3.378e-05
          8.123e-05
          6.178e-05
          4.727e-04
          3.660e-04
          1.288e-04
          2.691e-05
          6.382e-05
          4.885e-05
          3.914e-04
          3.045e-04
          1.054e-04
          2.144e-05
          5.511e-05
          3.667e-05
          3.138e-04
          2.476e-04
          8.527e-05
          1.876e-05
          4.499e-05
          2.659e-05
          2.540e-04
          2.010e-04
          6.932e-05
          1.601e-05
          3.395e-05
          2.104e-05
          2.143e-04
          1.641e-04
          5.659e-05
          1.342e-05
          2.988e-05
          1.867e-05
          1.778e-04
          1.332e-04
          4.592e-05
          1.046e-05
          2.371e-05
          1.472e-04
          1.079e-04
          3.666e-05
          7.704e-06
          1.210e-04
          8.752e-05
          9.907e-05
        </DataArray>
        <DataArray type="Float32" Name="TIRPower-TE" NumberOfComponents="1" format="ascii">
          7.878e-05
          3.642e-05
          3.743e-05
          7.185e-05
          3.195e-05
          1.910e-04
          8.860e-05
          3.193e-05
          5.839e-05
          2.567e-05
          2.825e-04
          1.616e-04
          7.310e-05
          2.532e-05
          4.411e-05
          2.131e-05
          2.275e-04
          1.302e-04
          5.919e-05
          2.019e-05
          4.117e-05
          1.839e-05
          1.716e-04
          9.974e-05
          4.710e-05
          1.776e-05
          3.534e-05
          1.466e-05
          1.414e-04
          8.522e-05
          3.954e-05
          1.532e-05
          2.834e-05
          1.240e-05
          1.254e-04
          7.119e-05
          3.300e-05
          1.292e-05
          2.488e-05
          1.054e-05
          1.085e-04
          5.881e-05
          2.655e-05
          9.988e-06
          1.901e-05
          9.449e-05
          4.943e-05
          2.139e-05
          7.340e-06
          7.833e-05
          4.010e-05
          6.539e-05
        </DataArray>
        <DataArray type="Float32" Name="TIRPower-TM" NumberOfComponents="1" format="ascii">
          2.913e-05
          5.062e-05
          1.994e-06
          2.537e-05
          4.210e-05
          2.455e-04
          6.557e-05
          1.848e-06
          2.284e-05
          3.611e-05
          1.901e-04
          2.044e-04
          5.568e-05
          1.588e-06
          1.971e-05
          2.754e-05
          1.639e-04
          1.743e-04
          4.624e-05
          1.241e-06
          1.393e-05
          1.829e-05
          1.422e-04
          1.478e-04
          3.816e-05
          1.003e-06
          9.645e-06
          1.193e-05
          1.126e-04
          1.157e-04
          2.978e-05
          6.890e-07
          5.616e-06
          8.642e-06
          8.887e-05
          9.289e-05
          2.359e-05
          4.968e-07
          4.995e-06
          8.131e-06
          6.934e-05
          7.441e-05
          1.937e-05
          4.700e-07
          4.699e-06
          5.274e-05
          5.845e-05
          1.527e-05
          3.637e-07
          4.270e-05
          4.742e-05
          3.367e-05
        </DataArray>
        <DataArray type="Float32" Name="step" NumberOfComponents="1" format="ascii">
          2.100e+01
          2.200e+01
          2.100e+01
          2.200e+01
          2.300e+01
          2.000e+01
          2.100e+01
          2.100e+01
          2.300e+01
          2.400e+01
          2.000e+01
          2.100e+01
          2.200e+01
          2.200e+01
          2.400e+01
          2.500e+01
          2.100e+01
          2.200e+01
          2.300e+01
          2.300e+01
          2.500e+01
          2.600e+01
          2.200e+01
          2.300e+01
          2.400e+01
          2.400e+01
          2.600e+01
          2.700e+01
          2.300e+01
          2.400e+01
          2.500e+01
          2.500e+01
          2.700e+01
          2.800e+01
          2.400e+01
          2.500e+01
          2.600e+01
          2.600e+01
          2.800e+01
          2.900e+01
          2.500e+01
          2.600e+01
          2.700e+01
          2.700e+01
          2.900e+01
          2.600e+01
          2.700e+01
          2.800e+01
          2.800e+01
          2.700e+01
          2.800e+01
          2.800e+01
        </DataArray>
      </PointData>
    </Piece>
  </UnstructuredGrid>
</VTKFile>
