<?xml version="1.0"?>
<VTKFile type="UnstructuredGrid" version="0.1" byte_order="LittleEndian" compressor="vtkZLibDataCompressor">
  <UnstructuredGrid>
    <Piece NumberOfPoints="97" NumberOfCells="179">
      <Points>
        <DataArray type="Float32" NumberOfComponents="3" format="ascii">
          2.301e+04 -9.887e+03 1.850e+04
          2.316e+04 -5.343e+03 1.850e+04
          2.328e+04 -7.167e+03 1.850e+04
          2.340e+04 -8.990e+03 1.850e+04
          2.352e+04 -1.081e+04 1.850e+04
          2.354e+04 -4.447e+03 1.850e+04
          2.367e+04 -6.271e+03 1.850e+04
          2.379e+04 -8.094e+03 1.850e+04
          2.391e+04 -9.917e+03 1.850e+04
          2.405e+04 -5.374e+03 1.850e+04
          2.417e+04 -7.198e+03 1.850e+04
          2.430e+04 -9.021e+03 1.850e+04
          2.442e+04 -1.084e+04 1.850e+04
          2.444e+04 -4.478e+03 1.850e+04
          2.456e+04 -6.301e+03 1.850e+04
          2.468e+04 -8.125e+03 1.850e+04
          2.481e+04 -9.948e+03 1.850e+04
          2.495e+04 -5.405e+03 1.850e+04
          2.507e+04 -7.228e+03 1.850e+04
          2.519e+04 -9.052e+03 1.850e+04
          2.532e+04 -1.088e+04 1.850e+04
          2.533e+04 -4.509e+03 1.850e+04
          2.546e+04 -6.332e+03 1.850e+04
          2.558e+04 -8.155e+03 1.850e+04
          2.570e+04 -9.979e+03 1.850e+04
          2.584e+04 -5.436e+03 1.850e+04
          2.597e+04 -7.259e+03 1.850e+04
          2.609e+04 -9.083e+03 1.850e+04
          2.621e+04 -1.091e+04 1.850e+04
          2.635e+04 -6.363e+03 1.850e+04
          2.648e+04 -8.186e+03 1.850e+04
          2.660e+04 -1.001e+04 1.850e+04
          2.674e+04 -5.467e+03 1.850e+04
          2.686e+04 -7.290e+03 1.850e+04
          2.699e+04 -9.113e+03 1.850e+04
          2.711e+04 -1.094e+04 1.850e+04
          2.725e+04 -6.394e+03 1.850e+04
          2.737e+04 -8.217e+03 1.850e+04
          2.749e+04 -1.004e+04 1.850e+04
          2.764e+04 -5.497e+03 1.850e+04
          2.776e+04 -7.321e+03 1.850e+04
          2.788e+04 -9.144e+03 1.850e+04
          2.800e+04 -1.097e+04 1.850e+04
          2.815e+04 -6.424e+03 1.850e+04
          2.827e+04 -8.248e+03 1.850e+04
          2.839e+04 -1.007e+04 1.850e+04
          2.853e+04 -5.528e+03 1.850e+04
          2.865e+04 -7.352e+03 1.850e+04
          2.878e+04 -9.175e+03 1.850e+04
          2.890e+04 -1.100e+04 1.850e+04
          2.904e+04 -6.455e+03 1.850e+04
          2.916e+04 -8.279e+03 1.850e+04
          2.929e+04 -1.010e+04 1.850e+04
          2.943e+04 -5.559e+03 1.850e+04
          2.955e+04 -7.382e+03 1.850e+04
          2.967e+04 -9.206e+03 1.850e+04
          2.980e+04 -1.103e+04 1.850e+04
          2.994e+04 -6.486e+03 1.850e+04
          3.006e+04 -8.309e+03 1.850e+04
          3.018e+04 -1.013e+04 1.850e+04
          3.032e+04 -5.590e+03 1.850e+04
          3.045e+04 -7.413e+03 1.850e+04
          3.057e+04 -9.236e+03 1.850e+04
          3.069e+04 -1.106e+04 1.850e+04
          3.083e+04 -6.517e+03 1.850e+04
          3.096e+04 -8.340e+03 1.850e+04
          3.108e+04 -1.016e+04 1.850e+04
          3.122e+04 -5.620e+03 1.850e+04
          3.134e+04 -7.444e+03 1.850e+04
          3.147e+04 -9.267e+03 1.850e+04
          3.159e+04 -1.109e+04 1.850e+04
          3.173e+04 -6.548e+03 1.850e+04
          3.185e+04 -8.371e+03 1.850e+04
          3.198e+04 -1.019e+04 1.850e+04
          3.212e+04 -5.651e+03 1.850e+04
          3.224e+04 -7.475e+03 1.850e+04
          3.236e+04 -9.298e+03 1.850e+04
          3.248e+04 -1.112e+04 1.850e+04
          3.263e+04 -6.578e+03 1.850e+04
          3.275e+04 -8.402e+03 1.850e+04
          3.287e+04 -1.023e+04 1.850e+04
          3.301e+04 -5.682e+03 1.850e+04
          3.313e+04 -7.505e+03 1.850e+04
          3.326e+04 -9.329e+03 1.850e+04
          3.338e+04 -1.115e+04 1.850e+04
          3.352e+04 -6.609e+03 1.850e+04
          3.364e+04 -8.433e+03 1.850e+04
          3.377e+04 -1.026e+04 1.850e+04
          3.391e+04 -5.713e+03 1.850e+04
          3.403e+04 -7.536e+03 1.850e+04
          3.415e+04 -9.360e+03 1.850e+04
          3.428e+04 -1.118e+04 1.850e+04
          3.442e+04 -6.640e+03 1.850e+04
          3.454e+04 -8.463e+03 1.850e+04
          3.466e+04 -1.029e+04 1.850e+04
          3.480e+04 -5.744e+03 1.850e+04
          3.493e+04 -7.567e+03 1.850e+04
        </DataArray>
      </Points>
      <Cells>
        <DataArray type="Int32" Name="connectivity" format="ascii">
           14 17 9
           30 26 23
           22 29 25
           32 39 21
           51 48 55
           24 28 31
           38 41 34
           42 20 70
           7 11 15
           19 24 27
           8 16 11
           30 34 37
           20 24 16
           38 35 42
           16 24 19
           17 13 9
           10 14 6
           18 22 14
           5 9 13
           6 14 9
           36 39 32
           37 34 41
           25 32 21
           53 60 21
           29 36 32
           53 50 57
           43 40 47
           55 62 58
           86 79 83
           69 62 66
           57 54 61
           96 89 93
           87 83 80
           70 66 63
           48 41 45
           34 31 38
           59 55 52
           45 38 42
           76 73 80
           49 52 45
           87 84 91
           59 66 62
           12 16 8
           3 8 11
           4 12 8
           20 16 12
           20 28 24
           20 35 28
           70 73 66
           35 20 42
           56 49 42
           56 63 59
           49 45 42
           52 48 45
           27 31 34
           28 35 31
           41 38 45
           31 35 38
           23 27 30
           24 31 27
           34 30 27
           40 43 36
           51 47 44
           37 41 44
           55 48 52
           44 41 48
           18 10 15
           19 27 23
           15 19 23
           11 16 19
           4 8 0
           7 3 11
           0 8 3
           19 15 11
           23 26 18
           0 2 1
           0 3 2
           23 18 15
           2 3 7
           7 10 2
           7 15 10
           22 18 26
           14 10 18
           2 6 1
           1 9 5
           17 21 13
           81 88 21
           1 6 9
           2 10 6
           14 22 17
           26 29 22
           17 25 21
           17 22 25
           25 29 32
           33 30 37
           26 33 29
           51 44 48
           39 46 21
           39 36 43
           39 43 46
           69 65 62
           46 43 50
           36 33 40
           29 33 36
           26 30 33
           37 40 33
           37 44 40
           43 47 50
           40 44 47
           65 61 58
           50 47 54
           64 61 68
           54 58 61
           72 68 65
           61 65 68
           60 57 64
           64 68 71
           60 53 57
           50 54 57
           46 53 21
           46 50 53
           74 67 71
           67 21 60
           67 64 71
           57 61 64
           64 67 60
           74 21 67
           78 74 71
           81 21 74
           74 78 81
           71 68 75
           78 85 81
           88 95 21
           82 78 75
           88 92 95
           89 86 93
           88 85 92
           88 81 85
           82 75 79
           78 71 75
           85 82 89
           85 78 82
           85 89 92
           82 79 86
           79 76 83
           79 72 76
           90 86 83
           89 82 86
           92 89 96
           92 96 95
           93 90 94
           75 72 79
           75 68 72
           54 51 58
           54 47 51
           59 62 55
           58 51 55
           73 69 66
           65 58 62
           72 69 76
           72 65 69
           80 73 77
           76 69 73
           49 56 52
           52 56 59
           63 56 42
           63 66 59
           70 63 42
           70 77 73
           84 70 91
           94 87 91
           77 70 84
           84 80 77
           83 76 80
           94 90 87
           93 86 90
           83 87 90
           80 84 87
           93 94 96
        </DataArray>
        <DataArray type="Int32" Name="offsets" format="ascii">
           3
           6
           9
           12
           15
           18
           21
           24
           27
           30
           33
           36
           39
           42
           45
           48
           51
           54
           57
           60
           63
           66
           69
           72
           75
           78
           81
           84
           87
           90
           93
           96
           99
           102
           105
           108
           111
           114
           117
           120
           123
           126
           129
           132
           135
           138
           141
           144
           147
           150
           153
           156
           159
           162
           165
           168
           171
           174
           177
           180
           183
           186
           189
           192
           195
           198
           201
           204
           207
           210
           213
           216
           219
           222
           225
           228
           231
           234
           237
           240
           243
           246
           249
           252
           255
           258
           261
           264
           267
           270
           273
           276
           279
           282
           285
           288
           291
           294
           297
           300
           303
           306
           309
           312
           315
           318
           321
           324
           327
           330
           333
           336
           339
           342
           345
           348
           351
           354
           357
           360
           363
           366
           369
           372
           375
           378
           381
           384
           387
           390
           393
           396
           399
           402
           405
           408
           411
           414
           417
           420
           423
           426
           429
           432
           435
           438
           441
           444
           447
           450
           453
           456
           459
           462
           465
           468
           471
           474
           477
           480
           483
           486
           489
           492
           495
           498
           501
           504
           507
           510
           513
           516
           519
           522
           525
           528
           531
           534
           537
        </DataArray>
        <DataArray type="UInt8" Name="types" format="ascii">
           5
           5
           5
           5
           5
           5
           5
           5
           5
           5
           5
           5
           5
           5
           5
           5
           5
           5
           5
           5
           5
           5
           5
           5
           5
           5
           5
           5
           5
           5
           5
           5
           5
           5
           5
           5
           5
           5
           5
           5
           5
           5
           5
           5
           5
           5
           5
           5
           5
           5
           5
           5
           5
           5
           5
           5
           5
           5
           5
           5
           5
           5
           5
           5
           5
           5
           5
           5
           5
           5
           5
           5
           5
           5
           5
           5
           5
           5
           5
           5
           5
           5
           5
           5
           5
           5
           5
           5
           5
           5
           5
           5
           5
           5
           5
           5
           5
           5
           5
           5
           5
           5
           5
           5
           5
           5
           5
           5
           5
           5
           5
           5
           5
           5
           5
           5
           5
           5
           5
           5
           5
           5
           5
           5
           5
           5
           5
           5
           5
           5
           5
           5
           5
           5
           5
           5
           5
           5
           5
           5
           5
           5
           5
           5
           5
           5
           5
           5
           5
           5
           5
           5
           5
           5
           5
           5
           5
           5
           5
           5
           5
           5
           5
           5
           5
           5
           5
           5
           5
           5
           5
           5
           5
           5
           5
           5
           5
           5
           5
        </DataArray>
      </Cells>
      <PointData Scalars="wavelength">
        <DataArray type="Float32" Name="wavelength" NumberOfComponents="1" format="ascii">
          5.200e+02
          5.200e+02
          5.200e+02
          5.200e+02
          5.200e+02
          5.200e+02
          5.200e+02
          5.200e+02
          5.200e+02
          5.200e+02
          5.200e+02
          5.200e+02
          5.200e+02
          5.200e+02
          5.200e+02
          5.200e+02
          5.200e+02
          5.200e+02
          5.200e+02
          5.200e+02
          5.200e+02
          5.200e+02
          5.200e+02
          5.200e+02
          5.200e+02
          5.200e+02
          5.200e+02
          5.200e+02
          5.200e+02
          5.200e+02
          5.200e+02
          5.200e+02
          5.200e+02
          5.200e+02
          5.200e+02
          5.200e+02
          5.200e+02
          5.200e+02
          5.200e+02
          5.200e+02
          5.200e+02
          5.200e+02
          5.200e+02
          5.200e+02
          5.200e+02
          5.200e+02
          5.200e+02
          5.200e+02
          5.200e+02
          5.200e+02
          5.200e+02
          5.200e+02
          5.200e+02
          5.200e+02
          5.200e+02
          5.200e+02
          5.200e+02
          5.200e+02
          5.200e+02
          5.200e+02
          5.200e+02
          5.200e+02
          5.200e+02
          5.200e+02
          5.200e+02
          5.200e+02
          5.200e+02
          5.200e+02
          5.200e+02
          5.200e+02
          5.200e+02
          5.200e+02
          5.200e+02
          5.200e+02
          5.200e+02
          5.200e+02
          5.200e+02
          5.200e+02
          5.200e+02
          5.200e+02
          5.200e+02
          5.200e+02
          5.200e+02
          5.200e+02
          5.200e+02
          5.200e+02
          5.200e+02
          5.200e+02
          5.200e+02
          5.200e+02
          5.200e+02
          5.200e+02
          5.200e+02
          5.200e+02
          5.200e+02
          5.200e+02
          5.200e+02
        </DataArray>
      </PointData>
    </Piece>
  </UnstructuredGrid>
</VTKFile>
