<?xml version="1.0"?>
<VTKFile type="UnstructuredGrid" version="0.1" byte_order="LittleEndian" compressor="vtkZLibDataCompressor">
  <UnstructuredGrid>
    <Piece NumberOfPoints="52" NumberOfCells="88">
      <Points>
        <DataArray type="Float32" NumberOfComponents="3" format="ascii">
          2.301e+04 -7.721e+03 1.850e+04
          2.307e+04 -9.089e+03 1.850e+04
          2.314e+04 -1.046e+04 1.850e+04
          2.332e+04 -7.050e+03 1.850e+04
          2.338e+04 -8.418e+03 1.850e+04
          2.345e+04 -9.787e+03 1.850e+04
          2.352e+04 -1.116e+04 1.850e+04
          2.363e+04 -6.378e+03 1.850e+04
          2.370e+04 -7.747e+03 1.850e+04
          2.376e+04 -9.116e+03 1.850e+04
          2.383e+04 -1.048e+04 1.850e+04
          2.401e+04 -7.076e+03 1.850e+04
          2.407e+04 -8.445e+03 1.850e+04
          2.414e+04 -9.814e+03 1.850e+04
          2.420e+04 -1.118e+04 1.850e+04
          2.432e+04 -6.405e+03 1.850e+04
          2.438e+04 -7.774e+03 1.850e+04
          2.445e+04 -9.143e+03 1.850e+04
          2.451e+04 -1.051e+04 1.850e+04
          2.469e+04 -7.103e+03 1.850e+04
          2.476e+04 -8.471e+03 1.850e+04
          2.483e+04 -9.840e+03 1.850e+04
          2.489e+04 -1.121e+04 1.850e+04
          2.500e+04 -6.432e+03 1.850e+04
          2.507e+04 -7.800e+03 1.850e+04
          2.514e+04 -9.169e+03 1.850e+04
          2.520e+04 -1.054e+04 1.850e+04
          2.538e+04 -7.129e+03 1.850e+04
          2.545e+04 -8.498e+03 1.850e+04
          2.551e+04 -9.867e+03 1.850e+04
          2.558e+04 -1.124e+04 1.850e+04
          2.569e+04 -6.458e+03 1.850e+04
          2.576e+04 -7.827e+03 1.850e+04
          2.582e+04 -9.196e+03 1.850e+04
          2.589e+04 -1.056e+04 1.850e+04
          2.607e+04 -7.156e+03 1.850e+04
          2.613e+04 -8.525e+03 1.850e+04
          2.620e+04 -9.893e+03 1.850e+04
          2.627e+04 -1.126e+04 1.850e+04
          2.638e+04 -6.485e+03 1.850e+04
          2.644e+04 -7.853e+03 1.850e+04
          2.651e+04 -9.222e+03 1.850e+04
          2.658e+04 -1.059e+04 1.850e+04
          2.676e+04 -7.182e+03 1.850e+04
          2.682e+04 -8.551e+03 1.850e+04
          2.689e+04 -9.920e+03 1.850e+04
          2.713e+04 -7.880e+03 1.850e+04
          2.720e+04 -9.249e+03 1.850e+04
          2.744e+04 -7.209e+03 1.850e+04
          2.751e+04 -8.578e+03 1.850e+04
          2.782e+04 -7.907e+03 1.850e+04
          2.813e+04 -7.236e+03 1.850e+04
        </DataArray>
      </Points>
      <Cells>
        <DataArray type="Int32" Name="connectivity" format="ascii">
           13 9 5
           9 13 17
           5 9 1
           20 12 17
           12 9 17
           4 8 0
           0 1 4
           12 8 4
           31 27 35
           29 26 34
           11 7 3
           25 17 21
           16 19 11
           28 20 25
           11 3 8
           29 34 37
           16 11 8
           25 20 17
           41 33 37
           18 14 22
           32 40 35
           40 44 46
           40 43 35
           18 10 14
           18 22 26
           22 30 26
           21 18 26
           13 5 10
           14 30 22
           13 21 17
           13 18 21
           29 33 25
           28 32 24
           10 18 13
           2 5 1
           2 10 5
           6 10 2
           6 14 10
           3 0 8
           1 9 4
           9 12 4
           20 16 12
           15 7 11
           12 16 8
           31 35 39
           15 23 39
           15 11 19
           28 24 20
           19 23 15
           24 19 16
           24 32 27
           20 24 16
           32 35 27
           33 36 28
           25 33 28
           32 36 40
           32 28 36
           19 27 23
           19 24 27
           23 31 39
           23 27 31
           44 40 36
           43 39 35
           46 43 40
           48 39 43
           46 48 43
           51 39 48
           44 49 46
           50 48 46
           34 38 42
           51 48 50
           49 51 50
           30 38 34
           49 50 46
           45 42 49
           21 29 25
           37 45 41
           49 44 47
           36 33 41
           41 44 36
           41 47 44
           26 29 21
           37 33 29
           26 30 34
           34 42 37
           45 49 47
           41 45 47
           37 42 45
        </DataArray>
        <DataArray type="Int32" Name="offsets" format="ascii">
           3
           6
           9
           12
           15
           18
           21
           24
           27
           30
           33
           36
           39
           42
           45
           48
           51
           54
           57
           60
           63
           66
           69
           72
           75
           78
           81
           84
           87
           90
           93
           96
           99
           102
           105
           108
           111
           114
           117
           120
           123
           126
           129
           132
           135
           138
           141
           144
           147
           150
           153
           156
           159
           162
           165
           168
           171
           174
           177
           180
           183
           186
           189
           192
           195
           198
           201
           204
           207
           210
           213
           216
           219
           222
           225
           228
           231
           234
           237
           240
           243
           246
           249
           252
           255
           258
           261
           264
        </DataArray>
        <DataArray type="UInt8" Name="types" format="ascii">
           5
           5
           5
           5
           5
           5
           5
           5
           5
           5
           5
           5
           5
           5
           5
           5
           5
           5
           5
           5
           5
           5
           5
           5
           5
           5
           5
           5
           5
           5
           5
           5
           5
           5
           5
           5
           5
           5
           5
           5
           5
           5
           5
           5
           5
           5
           5
           5
           5
           5
           5
           5
           5
           5
           5
           5
           5
           5
           5
           5
           5
           5
           5
           5
           5
           5
           5
           5
           5
           5
           5
           5
           5
           5
           5
           5
           5
           5
           5
           5
           5
           5
           5
           5
           5
           5
           5
           5
        </DataArray>
      </Cells>
      <PointData Scalars="wavelength">
        <DataArray type="Float32" Name="wavelength" NumberOfComponents="1" format="ascii">
          4.500e+02
          4.500e+02
          4.500e+02
          4.500e+02
          4.500e+02
          4.500e+02
          4.500e+02
          4.500e+02
          4.500e+02
          4.500e+02
          4.500e+02
          4.500e+02
          4.500e+02
          4.500e+02
          4.500e+02
          4.500e+02
          4.500e+02
          4.500e+02
          4.500e+02
          4.500e+02
          4.500e+02
          4.500e+02
          4.500e+02
          4.500e+02
          4.500e+02
          4.500e+02
          4.500e+02
          4.500e+02
          4.500e+02
          4.500e+02
          4.500e+02
          4.500e+02
          4.500e+02
          4.500e+02
          4.500e+02
          4.500e+02
          4.500e+02
          4.500e+02
          4.500e+02
          4.500e+02
          4.500e+02
          4.500e+02
          4.500e+02
          4.500e+02
          4.500e+02
          4.500e+02
          4.500e+02
          4.500e+02
          4.500e+02
          4.500e+02
          4.500e+02
          4.500e+02
        </DataArray>
      </PointData>
    </Piece>
  </UnstructuredGrid>
</VTKFile>
