# vtk DataFile Version 2.0
vtk output
ASCII
DATASET POLYDATA
POINTS 4284 float
0.0000000 0.0000000 500.0000000
210.1084133 -365.9105915 250.0000000
420.2168266 -731.8211829 0.0000000
420.2168266 -731.8211829 0.0000000
630.3252399 -1097.7317744 250.0000000
840.4336531 -1463.6423659 500.0000000
840.4336531 -1463.6423659 500.0000000
1050.5420664 -1829.5529573 250.0000000
1260.6504797 -2195.4635488 0.0000000
840.4336531 -1463.6423659 500.0000000
1187.4285904 -1465.7205316 250.0000000
1534.4235277 -1467.7986973 0.0000000
1260.6504797 -2195.4635488 0.0000000
1470.7588930 -2561.3741403 250.0000000
1680.8673063 -2927.2847317 500.0000000
1534.4235277 -1467.7986973 0.0000000
1881.4184649 -1469.8768631 250.0000000
2228.4134022 -1471.9550288 500.0000000
1680.8673063 -2927.2847317 500.0000000
1890.9757196 -3293.1953232 250.0000000
2101.0841328 -3659.1059147 0.0000000
2228.4134022 -1471.9550288 500.0000000
2438.5218155 -1837.8656203 250.0000000
2648.6302287 -2203.7762117 0.0000000
1680.8673063 -2927.2847317 500.0000000
2027.8622435 -2929.3628975 250.0000000
2374.8571808 -2931.4410632 0.0000000
2228.4134022 -1471.9550288 500.0000000
2575.4083394 -1474.0331946 250.0000000
2922.4032767 -1476.1113603 0.0000000
2101.0841328 -3659.1059147 0.0000000
2311.1925461 -4025.0165061 250.0000000
2521.3009594 -4390.9270976 500.0000000
2648.6302287 -2203.7762117 0.0000000
2858.7386420 -2569.6868032 250.0000000
3068.8470553 -2935.5973947 500.0000000
2374.8571808 -2931.4410632 0.0000000
2721.8521181 -2933.5192289 250.0000000
3068.8470553 -2935.5973947 500.0000000
2922.4032767 -1476.1113603 0.0000000
3269.3982140 -1478.1895260 250.0000000
3616.3931512 -1480.2676918 500.0000000
2521.3009594 -4390.9270976 500.0000000
2731.4093727 -4756.8376890 250.0000000
2941.5177860 -5122.7482805 0.0000000
3068.8470553 -2935.5973947 500.0000000
3278.9554686 -3301.5079861 250.0000000
3489.0638819 -3667.4185776 0.0000000
2521.3009594 -4390.9270976 500.0000000
2868.2958967 -4393.0052633 250.0000000
3215.2908339 -4395.0834291 0.0000000
3068.8470553 -2935.5973947 500.0000000
3415.8419926 -2937.6755604 250.0000000
3762.8369298 -2939.7537262 0.0000000
3616.3931512 -1480.2676918 500.0000000
3963.3880885 -1482.3458575 250.0000000
4310.3830257 -1484.4240233 0.0000000
2941.5177860 -5122.7482805 0.0000000
3151.6261993 -5488.6588720 250.0000000
3361.7346125 -5854.5694634 500.0000000
3489.0638819 -3667.4185776 0.0000000
3699.1722952 -4033.3291691 250.0000000
3909.2807084 -4399.2397605 500.0000000
3215.2908339 -4395.0834291 0.0000000
3562.2857712 -4397.1615948 250.0000000
3909.2807084 -4399.2397605 500.0000000
3762.8369298 -2939.7537262 0.0000000
4109.8318671 -2941.8318919 250.0000000
4456.8268044 -2943.9100576 500.0000000
4310.3830257 -1484.4240233 0.0000000
4657.3779630 -1486.5021890 250.0000000
5004.3729003 -1488.5803547 500.0000000
3361.7346125 -5854.5694634 500.0000000
3571.8430258 -6220.4800549 250.0000000
3781.9514391 -6586.3906464 0.0000000
3909.2807084 -4399.2397605 500.0000000
4119.3891217 -4765.1503520 250.0000000
4329.4975350 -5131.0609435 0.0000000
4456.8268044 -2943.9100576 500.0000000
4666.9352176 -3309.8206491 250.0000000
4877.0436309 -3675.7312406 0.0000000
3361.7346125 -5854.5694634 500.0000000
3708.7295498 -5856.6476292 250.0000000
4055.7244871 -5858.7257949 0.0000000
3909.2807084 -4399.2397605 500.0000000
4256.2756457 -4401.3179263 250.0000000
4603.2705830 -4403.3960920 0.0000000
4456.8268044 -2943.9100576 500.0000000
4803.8217416 -2945.9882234 250.0000000
5150.8166789 -2948.0663891 0.0000000
5004.3729003 -1488.5803547 500.0000000
5351.3678375 -1490.6585205 250.0000000
5698.3627748 -1492.7366862 0.0000000
3781.9514391 -6586.3906464 0.0000000
3992.0598524 -6952.3012378 250.0000000
4202.1682657 -7318.2118293 500.0000000
4329.4975350 -5131.0609435 0.0000000
4539.6059483 -5496.9715349 250.0000000
4749.7143616 -5862.8821264 500.0000000
4877.0436309 -3675.7312406 0.0000000
5087.1520442 -4041.6418320 250.0000000
5297.2604575 -4407.5524235 500.0000000
4055.7244871 -5858.7257949 0.0000000
4402.7194243 -5860.8039607 250.0000000
4749.7143616 -5862.8821264 500.0000000
4603.2705830 -4403.3960920 0.0000000
4950.2655202 -4405.4742578 250.0000000
5297.2604575 -4407.5524235 500.0000000
5150.8166789 -2948.0663891 0.0000000
5497.8116161 -2950.1445549 250.0000000
5844.8065534 -2952.2227206 500.0000000
5698.3627748 -1492.7366862 0.0000000
6045.3577121 -1494.8148520 250.0000000
6392.3526493 -1496.8930177 500.0000000
4202.1682657 -7318.2118293 500.0000000
4412.2766790 -7684.1224208 250.0000000
4622.3850922 -8050.0330122 0.0000000
4749.7143616 -5862.8821264 500.0000000
4959.8227749 -6228.7927179 250.0000000
5169.9311881 -6594.7033093 0.0000000
5297.2604575 -4407.5524235 500.0000000
5507.3688708 -4773.4630150 250.0000000
5717.4772841 -5139.3736064 0.0000000
4202.1682657 -7318.2118293 500.0000000
4549.1632029 -7320.2899950 250.0000000
4896.1581402 -7322.3681608 0.0000000
4749.7143616 -5862.8821264 500.0000000
5096.7092988 -5864.9602921 250.0000000
5443.7042361 -5867.0384579 0.0000000
5297.2604575 -4407.5524235 500.0000000
5644.2553948 -4409.6305892 250.0000000
5991.2503320 -4411.7087550 0.0000000
5844.8065534 -2952.2227206 500.0000000
6191.8014907 -2954.3008863 250.0000000
6538.7964279 -2956.3790521 0.0000000
6392.3526493 -1496.8930177 500.0000000
6739.3475866 -1498.9711834 250.0000000
7086.3425238 -1501.0493492 0.0000000
4622.3850922 -8050.0330122 0.0000000
4832.4935055 -8415.9436037 250.0000000
5042.6019188 -8781.8541952 500.0000000
5169.9311881 -6594.7033093 0.0000000
5380.0396014 -6960.6139008 250.0000000
5590.1480147 -7326.5244923 500.0000000
5717.4772841 -5139.3736064 0.0000000
5927.5856973 -5505.2841979 250.0000000
6137.6941106 -5871.1947894 500.0000000
4896.1581402 -7322.3681608 0.0000000
5243.1530775 -7324.4463265 250.0000000
5590.1480147 -7326.5244923 500.0000000
5443.7042361 -5867.0384579 0.0000000
5790.6991734 -5869.1166236 250.0000000
6137.6941106 -5871.1947894 500.0000000
5991.2503320 -4411.7087550 0.0000000
6338.2452693 -4413.7869207 250.0000000
6685.2402065 -4415.8650865 500.0000000
6538.7964279 -2956.3790521 0.0000000
6885.7913652 -2958.4572178 250.0000000
7232.7863024 -2960.5353836 500.0000000
7086.3425238 -1501.0493492 0.0000000
7433.3374611 -1503.1275149 250.0000000
7780.3323984 -1505.2056806 500.0000000
5042.6019188 -8781.8541952 500.0000000
5252.7103321 -9147.7647866 250.0000000
5462.8187454 -9513.6753781 0.0000000
5590.1480147 -7326.5244923 500.0000000
5800.2564280 -7692.4350837 250.0000000
6010.3648413 -8058.3456752 0.0000000
6137.6941106 -5871.1947894 500.0000000
6347.8025239 -6237.1053808 250.0000000
6557.9109372 -6603.0159723 0.0000000
5042.6019188 -8781.8541952 500.0000000
5389.5968561 -8783.9323609 250.0000000
5736.5917933 -8786.0105266 0.0000000
5590.1480147 -7326.5244923 500.0000000
5937.1429520 -7328.6026580 250.0000000
6284.1378892 -7330.6808237 0.0000000
6137.6941106 -5871.1947894 500.0000000
6484.6890479 -5873.2729551 250.0000000
6831.6839851 -5875.3511208 0.0000000
6685.2402065 -4415.8650865 500.0000000
7032.2351438 -4417.9432522 250.0000000
7379.2300811 -4420.0214179 0.0000000
7232.7863024 -2960.5353836 500.0000000
7579.7812397 -2962.6135493 250.0000000
7926.7761770 -2964.6917150 0.0000000
7780.3323984 -1505.2056806 500.0000000
8127.3273356 -1507.2838464 250.0000000
8474.3222729 -1509.3620121 0.0000000
5462.8187454 -9513.6753781 0.0000000
5672.9271587 -9879.5859696 250.0000000
5883.0355719 -10245.4965610 500.0000000
6010.3648413 -8058.3456752 0.0000000
6220.4732546 -8424.2562667 250.0000000
6430.5816678 -8790.1668581 500.0000000
6557.9109372 -6603.0159723 0.0000000
6768.0193505 -6968.9265638 250.0000000
6978.1277638 -7334.8371552 500.0000000
5736.5917933 -8786.0105266 0.0000000
6083.5867306 -8788.0886924 250.0000000
6430.5816678 -8790.1668581 500.0000000
6284.1378892 -7330.6808237 0.0000000
6631.1328265 -7332.7589895 250.0000000
6978.1277638 -7334.8371552 500.0000000
6831.6839851 -5875.3511208 0.0000000
7178.6789224 -5877.4292866 250.0000000
7525.6738597 -5879.5074523 500.0000000
7379.2300811 -4420.0214179 0.0000000
7726.2250183 -4422.0995837 250.0000000
8073.2199556 -4424.1777494 500.0000000
7926.7761770 -2964.6917150 0.0000000
8273.7711142 -2966.7698808 250.0000000
8620.7660515 -2968.8480465 500.0000000
8474.3222729 -1509.3620121 0.0000000
8821.3172101 -1511.4401779 250.0000000
9168.3121474 -1513.5183436 500.0000000
5883.0355719 -10245.4965610 500.0000000
6093.1439852 -10611.4071525 250.0000000
6303.2523985 -10977.3177440 0.0000000
6430.5816678 -8790.1668581 500.0000000
6640.6900811 -9156.0774496 250.0000000
6850.7984944 -9521.9880411 0.0000000
6978.1277638 -7334.8371552 500.0000000
7188.2361770 -7700.7477467 250.0000000
7398.3445903 -8066.6583382 0.0000000
7525.6738597 -5879.5074523 500.0000000
7735.7822730 -6245.4180438 250.0000000
7945.8906862 -6611.3286352 0.0000000
5883.0355719 -10245.4965610 500.0000000
6230.0305092 -10247.5747268 250.0000000
6577.0254465 -10249.6528925 0.0000000
6430.5816678 -8790.1668581 500.0000000
6777.5766051 -8792.2450239 250.0000000
7124.5715424 -8794.3231896 0.0000000
6978.1277638 -7334.8371552 500.0000000
7325.1227010 -7336.9153210 250.0000000
7672.1176383 -7338.9934867 0.0000000
7525.6738597 -5879.5074523 500.0000000
7872.6687969 -5881.5856181 250.0000000
8219.6637342 -5883.6637838 0.0000000
8073.2199556 -4424.1777494 500.0000000
8420.2148928 -4426.2559152 250.0000000
8767.2098301 -4428.3340809 0.0000000
8620.7660515 -2968.8480465 500.0000000
8967.7609888 -2970.9262122 250.0000000
9314.7559260 -2973.0043780 0.0000000
9168.3121474 -1513.5183436 500.0000000
9515.3070847 -1515.5965093 250.0000000
9862.3020219 -1517.6746751 0.0000000
6303.2523985 -10977.3177440 0.0000000
6513.3608118 -11343.2283354 250.0000000
6723.4692251 -11709.1389269 500.0000000
[...]
POINT_DATA 4284
SCALARS TIRPower float 1
LOOKUP_TABLE default
0.1240175
0.1240175
0.1240175
0.1240175
0.1240175
0.1240175
0.0928980
0.0928980
0.0928980
0.0311196
0.0311196
0.0311196
0.0928980
0.0928980
0.0928980
0.0311196
0.0311196
0.0311196
0.0697317
0.0697317
0.0697317
0.0086150
0.0086150
0.0086150
0.0231636
0.0231636
0.0231636
0.0225053
0.0225053
0.0225053
0.0697317
0.0697317
0.0697317
0.0086150
0.0086150
0.0086150
0.0231636
0.0231636
0.0231636
0.0225053
0.0225053
0.0225053
0.0522442
0.0522442
0.0522442
0.0127322
0.0127322
0.0127322
0.0174869
0.0174869
0.0174869
0.0190482
0.0190482
0.0190482
0.0225053
0.0225053
0.0225053
0.0522442
0.0522442
0.0522442
0.0127322
0.0127322
0.0127322
0.0174869
0.0174869
0.0174869
0.0190482
0.0190482
0.0190482
0.0225053
0.0225053
0.0225053
0.0405509
0.0405509
0.0405509
0.0137535
0.0137535
0.0137535
0.0055891
0.0055891
0.0055891
0.0116933
0.0116933
0.0116933
0.0164653
0.0164653
0.0164653
0.0134596
0.0134596
0.0134596
0.0225053
0.0225053
0.0225053
0.0405509
0.0405509
0.0405509
0.0137535
0.0137535
0.0137535
0.0055891
0.0055891
0.0055891
0.0116933
0.0116933
0.0116933
0.0164653
0.0164653
0.0164653
0.0134596
0.0134596
0.0134596
0.0225053
0.0225053
0.0225053
0.0332747
0.0332747
0.0332747
0.0192005
0.0192005
0.0192005
0.0076461
0.0076461
0.0076461
0.0072763
0.0072763
0.0072763
0.0062473
0.0062473
0.0062473
0.0144120
0.0144120
0.0144120
0.0134596
0.0134596
0.0134596
0.0225053
0.0225053
0.0225053
0.0332747
0.0332747
0.0332747
0.0192005
0.0192005
0.0192005
0.0076461
0.0076461
0.0076461
0.0072763
0.0072763
0.0072763
0.0062473
0.0062473
0.0062473
0.0144120
0.0144120
0.0144120
0.0134596
0.0134596
0.0134596
0.0225053
0.0225053
0.0225053
0.0261147
0.0261147
0.0261147
0.0220279
0.0220279
0.0220279
0.0076625
0.0076625
0.0076625
0.0071600
0.0071600
0.0071600
0.0044540
0.0044540
0.0044540
0.0062310
0.0062310
0.0062310
0.0144120
0.0144120
0.0144120
0.0134596
0.0134596
0.0134596
0.0225053
0.0225053
0.0225053
0.0261147
0.0261147
0.0261147
0.0220279
0.0220279
0.0220279
0.0076625
0.0076625
0.0076625
0.0071600
0.0071600
0.0071600
0.0044540
0.0044540
0.0044540
0.0062310
0.0062310
0.0062310
0.0144120
0.0144120
0.0144120
0.0134596
0.0134596
0.0134596
0.0225053
0.0225053
0.0225053
0.0199355
0.0199355
0.0199355
0.0222265
0.0222265
0.0222265
0.0100013
0.0100013
0.0100013
0.0015982
0.0015982
0.0015982
0.0061794
0.0061794
0.0061794
0.0069604
0.0069604
0.0069604
0.0021156
0.0021156
0.0021156
0.0046326
0.0046326
0.0046326
0.0144120
0.0144120
0.0144120
0.0134596
0.0134596
0.0134596
0.0225053
0.0225053
0.0225053
0.0199355
0.0199355
0.0199355
0.0222265
0.0222265
0.0222265
0.0100013
0.0100013
0.0100013
0.0015982
0.0015982
0.0015982
0.0061794
0.0061794
0.0061794
0.0069604
0.0069604
0.0069604
0.0021156
0.0021156
0.0021156
0.0046326
0.0046326
0.0046326
0.0144120
0.0144120
0.0144120
0.0134596
0.0134596
0.0134596
0.0225053
0.0225053
0.0225053
0.0150599
0.0150599
0.0150599
0.0216542
0.0216542
0.0216542
0.0127204
0.0127204
0.0127204
0.0027428
0.0027428
0.0027428
0.0048756
0.0048756
0.0048756
0.0067499
0.0067499
0.0067499
0.0042411
0.0042411
0.0042411
0.0009706
0.0009706
0.0009706
0.0046326
0.0046326
0.0046326
0.0144120
0.0144120
0.0144120
0.0134596
0.0134596
0.0134596
0.0225053
0.0225053
0.0225053
0.0150599
0.0150599
0.0150599
0.0216542
0.0216542
0.0216542
0.0127204
0.0127204
0.0127204
0.0027428
0.0027428
0.0027428
0.0048756
0.0048756
0.0048756
0.0067499
0.0067499
0.0067499
0.0042411
0.0042411
0.0042411
0.0009706
0.0009706
0.0009706
0.0046326
0.0046326
0.0046326
0.0144120
0.0144120
0.0144120
0.0134596
0.0134596
0.0134596
0.0225053
0.0225053
0.0225053
0.0112904
0.0112904
0.0112904
0.0183681
0.0183681
0.0183681
0.0142729
0.0142729
0.0142729
0.0036209
0.0036209
0.0036209
0.0037694
0.0037694
0.0037694
0.0081608
0.0081608
0.0081608
0.0051956
0.0051956
0.0051956
0.0033619
0.0033619
0.0033619
0.0009706
0.0009706
0.0009706
0.0046326
0.0046326
0.0046326
0.0144120
0.0144120
0.0144120
0.0134596
0.0134596
0.0134596
0.0225053
0.0225053
0.0225053
0.0112904
0.0112904
0.0112904
0.0183681
0.0183681
0.0183681
0.0142729
0.0142729
0.0142729
0.0036209
0.0036209
0.0036209
0.0037694
0.0037694
0.0037694
0.0081608
0.0081608
0.0081608
0.0051956
0.0051956
0.0051956
0.0033619
0.0033619
0.0033619
0.0009706
0.0009706
0.0009706
0.0046326
0.0046326
0.0046326
0.0144120
0.0144120
0.0144120
0.0134596
0.0134596
0.0134596
0.0225053
0.0225053
0.0225053
0.0084925
0.0084925
0.0084925
0.0147310
0.0147310
0.0147310
0.0157253
0.0157253
0.0157253
0.0045523
0.0045523
0.0045523
0.0027974
0.0027974
0.0027974
0.0074057
0.0074057
0.0074057
0.0067053
0.0067053
0.0067053
0.0042636
0.0042636
0.0042636
0.0033619
0.0033619
0.0033619
0.0009706
0.0009706
0.0009706
0.0046326
0.0046326
0.0046326
0.0144120
0.0144120
0.0144120
0.0134596
0.0134596
0.0134596
0.0225053
0.0225053
0.0225053
0.0084925
0.0084925
0.0084925
0.0147310
0.0147310
0.0147310
0.0157253
0.0157253
0.0157253
0.0045523
0.0045523
0.0045523
0.0027974
0.0027974
0.0027974
0.0074057
0.0074057
0.0074057
0.0067053
0.0067053
0.0067053
0.0042636
0.0042636
0.0042636
0.0033619
0.0033619
0.0033619
0.0009706
0.0009706
0.0009706
0.0046326
0.0046326
0.0046326
0.0144120
0.0144120
0.0144120
0.0134596
0.0134596
0.0134596
0.0225053
0.0225053
0.0225053
0.0064233
0.0064233
0.0064233
0.0129720
0.0129720
0.0129720
0.0152276
0.0152276
0.0152276
0.0044959
0.0044959
0.0044959
0.0011478
0.0011478
0.0011478
0.0020689
0.0020689
0.0020689
0.0045559
0.0045559
0.0045559
0.0079008
0.0079008
0.0079008
0.0067577
0.0067577
0.0067577
0.0031158
0.0031158
0.0031158
0.0033619
0.0033619
0.0033619
0.0009706
0.0009706
0.0009706
0.0046326
0.0046326
0.0046326
0.0144120
0.0144120
0.0144120
0.0134596
0.0134596
0.0134596
0.0225053
0.0225053
0.0225053
0.0064233
0.0064233
0.0064233
0.0129720
0.0129720
0.0129720
0.0152276
0.0152276
0.0152276
0.0044959
0.0044959
0.0044959
0.0011478
0.0011478
0.0011478
0.0020689
0.0020689
0.0020689
0.0045559
0.0045559
0.0045559
0.0079008
0.0079008
0.0079008
0.0067577
0.0067577
0.0067577
0.0031158
0.0031158
0.0031158
0.0033619
0.0033619
0.0033619
0.0009706
0.0009706
0.0009706
0.0046326
0.0046326
0.0046326
0.0144120
0.0144120
0.0144120
0.0134596
0.0134596
0.0134596
0.0225053
0.0225053
0.0225053
0.0048363
0.0048363
0.0048363
0.0113652
0.0113652
0.0113652
0.0145657
0.0145657
0.0145657
0.0056193
0.0056193
0.0056193
0.0018555
0.0018555
0.0018555
0.0015870
0.0015870
0.0015870
0.0036745
0.0036745
0.0036745
0.0052159
0.0052159
0.0052159
0.0067763
0.0067763
0.0067763
0.0060493
0.0060493
0.0060493
0.0031158
0.0031158
0.0031158
0.0033619
0.0033619
0.0033619
0.0009706
0.0009706
0.0009706
0.0046326
0.0046326
0.0046326
0.0144120
0.0144120
0.0144120
0.0134596
0.0134596
0.0134596
0.0225053
0.0225053
0.0225053
0.0113652
0.0113652
0.0113652
0.0145657
0.0145657
0.0145657
0.0056193
0.0056193
0.0056193
0.0018555
0.0018555
0.0018555
0.0015870
0.0015870
0.0015870
0.0036745
0.0036745
0.0036745
0.0052159
0.0052159
0.0052159
0.0067763
0.0067763
0.0067763
0.0060493
0.0060493
0.0060493
0.0031158
0.0031158
0.0031158
0.0033619
0.0033619
0.0033619
0.0009706
0.0009706
0.0009706
0.0046326
0.0046326
0.0046326
0.0144120
0.0144120
0.0144120
0.0134596
0.0134596
0.0134596
0.0225053
0.0225053
0.0225053
0.0138107
0.0138107
0.0138107
0.0072694
0.0072694
0.0072694
0.0032132
0.0032132
0.0032132
0.0037814
0.0037814
0.0037814
0.0044268
0.0044268
0.0044268
0.0035655
0.0035655
0.0035655
0.0054175
0.0054175
0.0054175
0.0060493
0.0060493
0.0060493
0.0031158
0.0031158
0.0031158
0.0033619
0.0033619
0.0033619
0.0009706
0.0009706
0.0009706
0.0046326
0.0046326
0.0046326
0.0144120
0.0144120
0.0144120
0.0134596
0.0134596
0.0134596
0.0225053
0.0225053
0.0225053
0.0138107
0.0138107
0.0138107
0.0072694
0.0072694
0.0072694
0.0032132
0.0032132
0.0032132
0.0037814
0.0037814
0.0037814
0.0044268
0.0044268
0.0044268
0.0035655
0.0035655
0.0035655
0.0054175
0.0054175
0.0054175
0.0060493
0.0060493
0.0060493
0.0031158
0.0031158
0.0031158
0.0033619
0.0033619
0.0033619
0.0009706
0.0009706
0.0009706
0.0046326
0.0046326
0.0046326
0.0144120
0.0144120
0.0144120
0.0134596
0.0134596
0.0134596
0.0225053
0.0225053
0.0225053
0.0082893
0.0082893
0.0082893
0.0035921
0.0035921
0.0035921
0.0012057
0.0012057
0.0012057
0.0058147
0.0058147
0.0058147
0.0034072
0.0034072
0.0034072
0.0031874
0.0031874
0.0031874
0.0042118
0.0042118
0.0042118
0.0060493
0.0060493
0.0060493
0.0031158
0.0031158
0.0031158
0.0033619
0.0033619
0.0033619
0.0009706
0.0009706
0.0009706
0.0046326
0.0046326
0.0046326
0.0144120
0.0144120
0.0144120
0.0134596
0.0134596
0.0134596
0.0225053
0.0225053
0.0225053
0.0082893
0.0082893
0.0082893
0.0035921
0.0035921
0.0035921
0.0012057
0.0012057
0.0012057
0.0058147
0.0058147
0.0058147
0.0034072
0.0034072
0.0034072
0.0031874
0.0031874
0.0031874
0.0042118
0.0042118
0.0042118
0.0060493
0.0060493
0.0060493
0.0031158
0.0031158
0.0031158
0.0033619
0.0033619
0.0033619
0.0009706
0.0009706
0.0009706
0.0046326
0.0046326
0.0046326
0.0144120
0.0144120
0.0144120
0.0134596
0.0134596
0.0134596
0.0225053
0.0225053
0.0225053
0.0008074
0.0008074
0.0008074
0.0007808
0.0007808
0.0007808
0.0032637
0.0032637
0.0032637
0.0011184
0.0011184
0.0011184
0.0067410
0.0067410
0.0067410
0.0037360
0.0037360
0.0037360
0.0032742
0.0032742
0.0032742
0.0042118
0.0042118
0.0042118
0.0060493
0.0060493
0.0060493
0.0031158
0.0031158
0.0031158
0.0033619
0.0033619
0.0033619
0.0009706
0.0009706
0.0009706
0.0046326
0.0046326
0.0046326
0.0109294
0.0109294
0.0109294
0.0105233
0.0105233
0.0105233
0.0225053
0.0225053
0.0225053
0.0009684
0.0009684
0.0009684
0.0009522
0.0009522
0.0009522
0.0008566
0.0008566
0.0008566
0.0008424
0.0008424
0.0008424
0.0032637
0.0032637
0.0032637
0.0011184
0.0011184
0.0011184
0.0067410
0.0067410
0.0067410
0.0037360
0.0037360
0.0037360
0.0032742
0.0032742
0.0032742
0.0042118
0.0042118
0.0042118
0.0060493
0.0060493
0.0060493
0.0031158
0.0031158
0.0031158
0.0033619
0.0033619
0.0033619
0.0009706
0.0009706
0.0009706
0.0046326
0.0046326
0.0046326
0.0109294
0.0109294
0.0109294
0.0105233
0.0105233
0.0105233
0.0225053
0.0225053
0.0225053
0.0001892
0.0001892
0.0001892
0.0000569
0.0000569
0.0000569
0.0000917
0.0000917
0.0000917
0.0002636
0.0002636
0.0002636
0.0000907
0.0000907
0.0000907
0.0006350
0.0006350
0.0006350
0.0006329
0.0006329
0.0006329
0.0017760
0.0017760
0.0017760
0.0078092
0.0078092
0.0078092
0.0030787
0.0030787
0.0030787
0.0032742
0.0032742
0.0032742
0.0042118
0.0042118
0.0042118
0.0060493
0.0060493
0.0060493
0.0031158
0.0031158
0.0031158
0.0026613
0.0026613
0.0026613
0.0008101
0.0008101
0.0008101
0.0000076
0.0000076
0.0000076
0.0035905
0.0035905
0.0035905
0.0000079
0.0000079
0.0000079
0.0083529
0.0083529
0.0083529
0.0082766
0.0082766
0.0082766
0.0225053
0.0225053
0.0225053
0.0002333
0.0002333
0.0002333
0.0000727
0.0000727
0.0000727
0.0000055
0.0000055
0.0000055
0.0003211
0.0003211
0.0003211
0.0000042
0.0000042
0.0000042
0.0007616
0.0007616
0.0007616
0.0007782
0.0007782
0.0007782
0.0002064
0.0002064
0.0002064
0.0000643
0.0000643
0.0000643
0.0000049
0.0000049
0.0000049
0.0002841
0.0002841
0.0002841
0.0000037
0.0000037
0.0000037
0.0006736
0.0006736
0.0006736
0.0006885
0.0006885
0.0006885
0.0030787
0.0030787
0.0030787
0.0032742
0.0032742
0.0032742
0.0042118
0.0042118
0.0042118
0.0060493
0.0060493
0.0060493
0.0031158
0.0031158
0.0031158
0.0026613
0.0026613
0.0026613
0.0008101
0.0008101
0.0008101
0.0000076
0.0000076
0.0000076
0.0035905
0.0035905
0.0035905
0.0000079
0.0000079
0.0000079
0.0083529
0.0083529
0.0083529
0.0082766
0.0082766
0.0082766
0.0225053
0.0225053
0.0225053
0.0003274
0.0003274
0.0003274
0.0000224
0.0000224
0.0000224
0.0001694
0.0001694
0.0001694
0.0000070
0.0000070
0.0000070
0.0001503
0.0001503
0.0001503
0.0000005
0.0000005
0.0000005
0.0000305
0.0000305
0.0000305
0.0000476
0.0000476
0.0000476
0.0000004
0.0000004
0.0000004
0.0000620
0.0000620
0.0000620
0.0002086
0.0002086
0.0002086
0.0000637
0.0000637
0.0000637
0.0004971
0.0004971
0.0004971
0.0005180
0.0005180
0.0005180
0.0005360
0.0005360
0.0005360
0.0025428
0.0025428
0.0025428
0.0032742
0.0032742
0.0032742
0.0042118
0.0042118
0.0042118
0.0045487
0.0045487
0.0045487
0.0000013
0.0000013
0.0000013
0.0023443
0.0023443
0.0023443
0.0021202
0.0021202
0.0021202
0.0000014
0.0000014
0.0000014
0.0006772
0.0006772
0.0006772
0.0000234
0.0000234
0.0000234
0.0028025
0.0028025
0.0028025
0.0000250
0.0000250
0.0000250
0.0064263
0.0064263
0.0064263
0.0065418
0.0065418
0.0065418
0.0225053
0.0225053
0.0225053
0.0003902
0.0003902
0.0003902
0.0000009
0.0000009
0.0000009
0.0002017
0.0002017
0.0002017
0.0000001
0.0000001
0.0000001
0.0001859
0.0001859
0.0001859
0.0000000
0.0000000
0.0000000
0.0000015
0.0000015
0.0000015
0.0000611
0.0000611
0.0000611
0.0000037
0.0000037
0.0000037
0.0002547
0.0002547
0.0002547
0.0000026
0.0000026
0.0000026
0.0006009
0.0006009
0.0006009
0.0006399
0.0006399
0.0006399
0.0003452
0.0003452
0.0003452
0.0000008
0.0000008
0.0000008
0.0001784
0.0001784
0.0001784
0.0000001
0.0000001
0.0000001
0.0001645
0.0001645
0.0001645
0.0000000
0.0000000
0.0000000
0.0000014
0.0000014
0.0000014
0.0000541
0.0000541
0.0000541
0.0000033
0.0000033
0.0000033
0.0002253
0.0002253
0.0002253
0.0000023
0.0000023
0.0000023
0.0005316
0.0005316
0.0005316
0.0005661
0.0005661
0.0005661
0.0025428
0.0025428
0.0025428
0.0032742
0.0032742
0.0032742
0.0042118
0.0042118
0.0042118
0.0045487
0.0045487
0.0045487
0.0000013
0.0000013
0.0000013
0.0023443
0.0023443
0.0023443
0.0021202
0.0021202
0.0021202
0.0000014
0.0000014
0.0000014
0.0006772
0.0006772
0.0006772
0.0000234
0.0000234
0.0000234
0.0028025
0.0028025
0.0028025
0.0000250
0.0000250
0.0000250
0.0064263
0.0064263
0.0064263
0.0065418
0.0065418
0.0065418
0.0225053
0.0225053
0.0225053
0.0001753
0.0001753
0.0001753
0.0000370
0.0000370
0.0000370
0.0002236
0.0002236
0.0002236
0.0000001
0.0000001
0.0000001
0.0000191
0.0000191
0.0000191
0.0002486
0.0002486
0.0002486
0.0000163
0.0000163
0.0000163
0.0001278
0.0001278
0.0001278
0.0000001
0.0000001
0.0000001
0.0000059
0.0000059
0.0000059
0.0001202
0.0001202
0.0001202
0.0000003
0.0000003
0.0000003
0.0000226
0.0000226
0.0000226
0.0000401
0.0000401
0.0000401
0.0000002
0.0000002
0.0000002
0.0000430
0.0000430
0.0000430
0.0001644
0.0001644
0.0001644
0.0000466
0.0000466
0.0000466
0.0004039
0.0004039
0.0004039
0.0004302
0.0004302
0.0004302
0.0025428
0.0025428
0.0025428
0.0023927
0.0023927
0.0023927
0.0000018
0.0000018
0.0000018
0.0030575
0.0030575
0.0030575
0.0034432
0.0034432
0.0034432
0.0000042
0.0000042
0.0000042
0.0017744
0.0017744
0.0017744
0.0017005
0.0017005
0.0017005
0.0000046
0.0000046
0.0000046
0.0005667
0.0005667
0.0005667
0.0000399
0.0000399
0.0000399
0.0022002
0.0022002
0.0022002
0.0000441
0.0000441
0.0000441
0.0049813
0.0049813
0.0049813
0.0052219
0.0052219
0.0052219
0.0225053
0.0225053
0.0225053
0.0002039
0.0002039
0.0002039
0.0000024
0.0000024
0.0000024
0.0002595
0.0002595
0.0002595
0.0000012
0.0000012
0.0000012
0.0002969
0.0002969
0.0002969
0.0000006
0.0000006
0.0000006
0.0001524
0.0001524
0.0001524
0.0000001
0.0000001
0.0000001
0.0001501
0.0001501
0.0001501
0.0000010
0.0000010
0.0000010
0.0000514
0.0000514
0.0000514
0.0000027
0.0000027
0.0000027
0.0002013
0.0002013
0.0002013
0.0000021
0.0000021
0.0000021
0.0004912
0.0004912
0.0004912
0.0005318
0.0005318
0.0005318
0.0001803
0.0001803
0.0001803
0.0000021
0.0000021
0.0000021
0.0002295
0.0002295
0.0002295
0.0000011
0.0000011
0.0000011
0.0002626
0.0002626
0.0002626
0.0000005
0.0000005
0.0000005
0.0001348
0.0001348
0.0001348
0.0000001
0.0000001
0.0000001
0.0001328
0.0001328
0.0001328
0.0000009
0.0000009
0.0000009
0.0000455
0.0000455
0.0000455
0.0000024
0.0000024
0.0000024
0.0001781
0.0001781
0.0001781
0.0000019
0.0000019
0.0000019
0.0004345
0.0004345
0.0004345
0.0004705
0.0004705
0.0004705
0.0025428
0.0025428
0.0025428
0.0023927
0.0023927
0.0023927
0.0000018
0.0000018
0.0000018
0.0030575
0.0030575
0.0030575
0.0034432
0.0034432
0.0034432
0.0000042
0.0000042
0.0000042
0.0017744
0.0017744
0.0017744
0.0017005
0.0017005
0.0017005
0.0000046
0.0000046
0.0000046
0.0005667
0.0005667
0.0005667
0.0000399
0.0000399
0.0000399
0.0022002
0.0022002
0.0022002
0.0000441
0.0000441
0.0000441
0.0049813
0.0049813
0.0049813
0.0052219
0.0052219
0.0052219
0.0225053
0.0225053
0.0225053
0.0000192
0.0000192
0.0000192
0.0000002
0.0000002
0.0000002
0.0000244
0.0000244
0.0000244
0.0001288
0.0001288
0.0001288
0.0000001
0.0000001
0.0000001
0.0000257
0.0000257
0.0000257
0.0001636
0.0001636
0.0001636
0.0000000
0.0000000
0.0000000
0.0000145
0.0000145
0.0000145
0.0001884
0.0001884
0.0001884
0.0000123
0.0000123
0.0000123
0.0000969
0.0000969
0.0000969
0.0000001
0.0000001
0.0000001
0.0000050
0.0000050
0.0000050
0.0000974
0.0000974
0.0000974
0.0000002
0.0000002
0.0000002
0.0000169
0.0000169
0.0000169
0.0000347
0.0000347
0.0000347
0.0000002
0.0000002
0.0000002
0.0000330
0.0000330
0.0000330
0.0001402
0.0001402
0.0001402
0.0000371
0.0000371
0.0000371
0.0003371
0.0003371
0.0003371
0.0003495
0.0003495
0.0003495
0.0025428
0.0025428
0.0025428
0.0000016
0.0000016
0.0000016
0.0017549
0.0017549
0.0017549
0.0000051
0.0000051
0.0000051
0.0022262
0.0022262
0.0022262
0.0026225
0.0026225
0.0026225
0.0000077
0.0000077
0.0000077
0.0013519
0.0013519
0.0013519
0.0013723
0.0013723
0.0013723
0.0000084
0.0000084
0.0000084
0.0004710
0.0004710
0.0004710
0.0000535
0.0000535
0.0000535
0.0017400
0.0017400
0.0017400
0.0000604
0.0000604
0.0000604
0.0039248
0.0039248
0.0039248
0.0042387
0.0042387
0.0042387
0.0225053
0.0225053
0.0225053
0.0000015
0.0000015
0.0000015
0.0000019
0.0000019
0.0000019
0.0001503
0.0001503
0.0001503
0.0000017
0.0000017
0.0000017
0.0001899
0.0001899
0.0001899
0.0000009
0.0000009
0.0000009
0.0002257
0.0002257
0.0002257
0.0000004
0.0000004
0.0000004
0.0001166
0.0001166
0.0001166
0.0000001
0.0000001
0.0000001
0.0001215
0.0001215
0.0001215
0.0000008
0.0000008
0.0000008
0.0000445
0.0000445
0.0000445
0.0000024
0.0000024
0.0000024
0.0001734
0.0001734
0.0001734
0.0000024
0.0000024
0.0000024
0.0004111
0.0004111
0.0004111
0.0004391
0.0004391
0.0004391
0.0000013
0.0000013
0.0000013
0.0000017
0.0000017
0.0000017
0.0001329
0.0001329
0.0001329
0.0000015
0.0000015
0.0000015
0.0001679
0.0001679
0.0001679
0.0000008
0.0000008
0.0000008
0.0001997
0.0001997
0.0001997
0.0000004
0.0000004
0.0000004
0.0001032
0.0001032
0.0001032
0.0000001
0.0000001
0.0000001