<?xml version="1.0"?>
<VTKFile type="UnstructuredGrid" version="0.1" byte_order="LittleEndian" compressor="vtkZLibDataCompressor">
  <UnstructuredGrid>
    <Piece NumberOfPoints="232" NumberOfCells="116">
      <Points>
        <DataArray type="Float32" NumberOfComponents="3" format="ascii">
          -3.987e+02 9.624e+02 5.000e+02
          -1.272e+03 4.263e+02 5.000e+02
          -1.272e+03 -1.436e+02 5.000e+02
          5.298e+02 9.624e+02 5.000e+02
          5.298e+02 9.624e+02 5.000e+02
          -1.272e+03 -1.436e+02 5.000e+02
          -1.272e+03 -7.135e+02 5.000e+02
          1.272e+03 8.482e+02 5.000e+02
          1.272e+03 8.482e+02 5.000e+02
          -1.272e+03 -7.135e+02 5.000e+02
          -7.494e+02 -9.624e+02 5.000e+02
          1.272e+03 2.784e+02 5.000e+02
          1.272e+03 2.784e+02 5.000e+02
          -7.494e+02 -9.624e+02 5.000e+02
          1.791e+02 -9.624e+02 5.000e+02
          1.272e+03 -2.915e+02 5.000e+02
          1.272e+03 -2.915e+02 5.000e+02
          1.791e+02 -9.624e+02 5.000e+02
          1.108e+03 -9.624e+02 5.000e+02
          1.272e+03 -8.614e+02 5.000e+02
          2.559e+03 -1.545e+04 5.000e+02
          2.000e+03 -1.516e+04 5.000e+02
          2.000e+03 -1.472e+04 5.000e+02
          3.416e+03 -1.545e+04 5.000e+02
          3.416e+03 -1.545e+04 5.000e+02
          2.000e+03 -1.472e+04 5.000e+02
          2.000e+03 -1.427e+04 5.000e+02
          4.273e+03 -1.545e+04 5.000e+02
          4.273e+03 -1.545e+04 5.000e+02
          2.000e+03 -1.427e+04 5.000e+02
          2.000e+03 -1.383e+04 5.000e+02
          5.130e+03 -1.545e+04 5.000e+02
          5.130e+03 -1.545e+04 5.000e+02
          2.000e+03 -1.383e+04 5.000e+02
          2.000e+03 -1.339e+04 5.000e+02
          5.987e+03 -1.545e+04 5.000e+02
          5.987e+03 -1.545e+04 5.000e+02
          2.000e+03 -1.339e+04 5.000e+02
          2.000e+03 -1.295e+04 5.000e+02
          6.844e+03 -1.545e+04 5.000e+02
          6.844e+03 -1.545e+04 5.000e+02
          2.000e+03 -1.295e+04 5.000e+02
          2.000e+03 -1.250e+04 5.000e+02
          7.701e+03 -1.545e+04 5.000e+02
          7.701e+03 -1.545e+04 5.000e+02
          2.000e+03 -1.250e+04 5.000e+02
          2.000e+03 -1.206e+04 5.000e+02
          8.558e+03 -1.545e+04 5.000e+02
          8.558e+03 -1.545e+04 5.000e+02
          2.000e+03 -1.206e+04 5.000e+02
          2.000e+03 -1.162e+04 5.000e+02
          9.415e+03 -1.545e+04 5.000e+02
          9.415e+03 -1.545e+04 5.000e+02
          2.000e+03 -1.162e+04 5.000e+02
          2.000e+03 -1.118e+04 5.000e+02
          1.027e+04 -1.545e+04 5.000e+02
          1.027e+04 -1.545e+04 5.000e+02
          2.000e+03 -1.118e+04 5.000e+02
          2.000e+03 -1.073e+04 5.000e+02
          1.113e+04 -1.545e+04 5.000e+02
          1.113e+04 -1.545e+04 5.000e+02
          2.000e+03 -1.073e+04 5.000e+02
          2.000e+03 -1.029e+04 5.000e+02
          1.199e+04 -1.545e+04 5.000e+02
          1.199e+04 -1.545e+04 5.000e+02
          2.000e+03 -1.029e+04 5.000e+02
          2.000e+03 -9.847e+03 5.000e+02
          1.284e+04 -1.545e+04 5.000e+02
          1.284e+04 -1.545e+04 5.000e+02
          2.000e+03 -9.847e+03 5.000e+02
          2.000e+03 -9.404e+03 5.000e+02
          1.370e+04 -1.545e+04 5.000e+02
          1.370e+04 -1.545e+04 5.000e+02
          2.000e+03 -9.404e+03 5.000e+02
          2.000e+03 -8.961e+03 5.000e+02
          1.456e+04 -1.545e+04 5.000e+02
          1.456e+04 -1.545e+04 5.000e+02
          2.000e+03 -8.961e+03 5.000e+02
          2.000e+03 -8.519e+03 5.000e+02
          1.500e+04 -1.523e+04 5.000e+02
          1.500e+04 -1.523e+04 5.000e+02
          2.000e+03 -8.519e+03 5.000e+02
          2.000e+03 -8.076e+03 5.000e+02
          1.500e+04 -1.479e+04 5.000e+02
          1.500e+04 -1.479e+04 5.000e+02
          2.000e+03 -8.076e+03 5.000e+02
          2.000e+03 -7.633e+03 5.000e+02
          1.500e+04 -1.435e+04 5.000e+02
          1.500e+04 -1.435e+04 5.000e+02
          2.000e+03 -7.633e+03 5.000e+02
          2.000e+03 -7.190e+03 5.000e+02
          1.500e+04 -1.391e+04 5.000e+02
          1.500e+04 -1.391e+04 5.000e+02
          2.000e+03 -7.190e+03 5.000e+02
          2.000e+03 -6.748e+03 5.000e+02
          1.500e+04 -1.346e+04 5.000e+02
          1.500e+04 -1.346e+04 5.000e+02
          2.000e+03 -6.748e+03 5.000e+02
          2.000e+03 -6.305e+03 5.000e+02
          1.500e+04 -1.302e+04 5.000e+02
          1.500e+04 -1.302e+04 5.000e+02
          2.000e+03 -6.305e+03 5.000e+02
          2.000e+03 -5.862e+03 5.000e+02
          1.500e+04 -1.258e+04 5.000e+02
          1.500e+04 -1.258e+04 5.000e+02
          2.000e+03 -5.862e+03 5.000e+02
          2.000e+03 -5.419e+03 5.000e+02
          1.500e+04 -1.214e+04 5.000e+02
          1.500e+04 -1.214e+04 5.000e+02
          2.000e+03 -5.419e+03 5.000e+02
          2.000e+03 -4.977e+03 5.000e+02
          1.500e+04 -1.169e+04 5.000e+02
          1.500e+04 -1.169e+04 5.000e+02
          2.000e+03 -4.977e+03 5.000e+02
          2.000e+03 -4.534e+03 5.000e+02
          1.500e+04 -1.125e+04 5.000e+02
          1.500e+04 -1.125e+04 5.000e+02
          2.000e+03 -4.534e+03 5.000e+02
          2.000e+03 -4.091e+03 5.000e+02
          1.500e+04 -1.081e+04 5.000e+02
          1.500e+04 -1.081e+04 5.000e+02
          2.000e+03 -4.091e+03 5.000e+02
          2.000e+03 -3.648e+03 5.000e+02
          1.500e+04 -1.036e+04 5.000e+02
          1.500e+04 -1.036e+04 5.000e+02
          2.000e+03 -3.648e+03 5.000e+02
          2.000e+03 -3.205e+03 5.000e+02
          1.500e+04 -9.922e+03 5.000e+02
          1.500e+04 -9.922e+03 5.000e+02
          2.000e+03 -3.205e+03 5.000e+02
          2.000e+03 -2.763e+03 5.000e+02
          1.500e+04 -9.479e+03 5.000e+02
          1.500e+04 -9.479e+03 5.000e+02
          2.000e+03 -2.763e+03 5.000e+02
          2.107e+03 -2.375e+03 5.000e+02
          1.500e+04 -9.036e+03 5.000e+02
          1.500e+04 -9.036e+03 5.000e+02
          2.107e+03 -2.375e+03 5.000e+02
          2.964e+03 -2.375e+03 5.000e+02
          1.500e+04 -8.593e+03 5.000e+02
          1.500e+04 -8.593e+03 5.000e+02
          2.964e+03 -2.375e+03 5.000e+02
          3.821e+03 -2.375e+03 5.000e+02
          1.500e+04 -8.151e+03 5.000e+02
          1.500e+04 -8.151e+03 5.000e+02
          3.821e+03 -2.375e+03 5.000e+02
          4.678e+03 -2.375e+03 5.000e+02
          1.500e+04 -7.708e+03 5.000e+02
          1.500e+04 -7.708e+03 5.000e+02
          4.678e+03 -2.375e+03 5.000e+02
          5.535e+03 -2.375e+03 5.000e+02
          1.500e+04 -7.265e+03 5.000e+02
          1.500e+04 -7.265e+03 5.000e+02
          5.535e+03 -2.375e+03 5.000e+02
          6.392e+03 -2.375e+03 5.000e+02
          1.500e+04 -6.822e+03 5.000e+02
          1.500e+04 -6.822e+03 5.000e+02
          6.392e+03 -2.375e+03 5.000e+02
          7.249e+03 -2.375e+03 5.000e+02
          1.500e+04 -6.379e+03 5.000e+02
          1.500e+04 -6.379e+03 5.000e+02
          7.249e+03 -2.375e+03 5.000e+02
          8.106e+03 -2.375e+03 5.000e+02
          1.500e+04 -5.937e+03 5.000e+02
          1.500e+04 -5.937e+03 5.000e+02
          8.106e+03 -2.375e+03 5.000e+02
          8.963e+03 -2.375e+03 5.000e+02
          1.500e+04 -5.494e+03 5.000e+02
          1.500e+04 -5.494e+03 5.000e+02
          8.963e+03 -2.375e+03 5.000e+02
          9.820e+03 -2.375e+03 5.000e+02
          1.500e+04 -5.051e+03 5.000e+02
          1.500e+04 -5.051e+03 5.000e+02
          9.820e+03 -2.375e+03 5.000e+02
          1.068e+04 -2.375e+03 5.000e+02
          1.500e+04 -4.608e+03 5.000e+02
          1.500e+04 -4.608e+03 5.000e+02
          1.068e+04 -2.375e+03 5.000e+02
          1.153e+04 -2.375e+03 5.000e+02
          1.500e+04 -4.166e+03 5.000e+02
          1.500e+04 -4.166e+03 5.000e+02
          1.153e+04 -2.375e+03 5.000e+02
          1.239e+04 -2.375e+03 5.000e+02
          1.500e+04 -3.723e+03 5.000e+02
          1.500e+04 -3.723e+03 5.000e+02
          1.239e+04 -2.375e+03 5.000e+02
          1.325e+04 -2.375e+03 5.000e+02
          1.500e+04 -3.280e+03 5.000e+02
          1.500e+04 -3.280e+03 5.000e+02
          1.325e+04 -2.375e+03 5.000e+02
          1.411e+04 -2.375e+03 5.000e+02
          1.500e+04 -2.837e+03 5.000e+02
          1.500e+04 -2.837e+03 5.000e+02
          1.411e+04 -2.375e+03 5.000e+02
          1.496e+04 -2.375e+03 5.000e+02
          1.500e+04 -2.395e+03 5.000e+02
          1.899e+04 -2.375e+03 5.000e+02
          1.889e+04 -1.545e+04 5.000e+02
          2.074e+04 -1.545e+04 5.000e+02
          2.084e+04 -2.375e+03 5.000e+02
          2.084e+04 -2.375e+03 5.000e+02
          2.074e+04 -1.545e+04 5.000e+02
          2.259e+04 -1.545e+04 5.000e+02
          2.269e+04 -2.375e+03 5.000e+02
          2.269e+04 -2.375e+03 5.000e+02
          2.259e+04 -1.545e+04 5.000e+02
          2.444e+04 -1.545e+04 5.000e+02
          2.454e+04 -2.375e+03 5.000e+02
          2.454e+04 -2.375e+03 5.000e+02
          2.444e+04 -1.545e+04 5.000e+02
          2.629e+04 -1.545e+04 5.000e+02
          2.639e+04 -2.375e+03 5.000e+02
          2.639e+04 -2.375e+03 5.000e+02
          2.629e+04 -1.545e+04 5.000e+02
          2.814e+04 -1.545e+04 5.000e+02
          2.824e+04 -2.375e+03 5.000e+02
          2.824e+04 -2.375e+03 5.000e+02
          2.814e+04 -1.545e+04 5.000e+02
          2.999e+04 -1.545e+04 5.000e+02
          3.009e+04 -2.375e+03 5.000e+02
          3.009e+04 -2.375e+03 5.000e+02
          2.999e+04 -1.545e+04 5.000e+02
          3.184e+04 -1.545e+04 5.000e+02
          3.194e+04 -2.375e+03 5.000e+02
          3.194e+04 -2.375e+03 5.000e+02
          3.184e+04 -1.545e+04 5.000e+02
          3.369e+04 -1.545e+04 5.000e+02
          3.379e+04 -2.375e+03 5.000e+02
          3.379e+04 -2.375e+03 5.000e+02
          3.369e+04 -1.545e+04 5.000e+02
          3.554e+04 -1.545e+04 5.000e+02
          3.564e+04 -2.375e+03 5.000e+02
        </DataArray>
      </Points>
      <Cells>
        <DataArray type="Int32" Name="connectivity" format="ascii">
           1 2 0
           2 3 0
           5 6 4
           6 7 4
           9 10 8
           10 11 8
           13 14 12
           14 15 12
           16 18 19
           16 17 18
           22 21 20
           23 22 20
           27 26 24
           26 25 24
           30 29 28
           31 30 28
           35 34 32
           34 33 32
           38 37 36
           39 38 36
           43 42 40
           42 41 40
           46 45 44
           47 46 44
           51 50 48
           50 49 48
           54 53 52
           55 54 52
           58 57 56
           59 58 56
           63 62 60
           62 61 60
           66 65 64
           67 66 64
           71 70 68
           70 69 68
           74 73 72
           75 74 72
           79 78 76
           78 77 76
           82 81 83
           81 80 83
           87 86 85
           87 85 84
           90 89 91
           89 88 91
           95 94 93
           95 93 92
           98 97 99
           97 96 99
           103 102 101
           103 101 100
           106 105 107
           105 104 107
           111 110 109
           111 109 108
           114 113 115
           113 112 115
           119 118 117
           119 117 116
           122 121 123
           121 120 123
           127 126 125
           127 125 124
           130 129 131
           129 128 131
           135 134 133
           135 133 132
           139 138 136
           138 137 136
           143 142 140
           142 141 140
           146 145 144
           146 144 147
           150 149 148
           150 148 151
           155 154 152
           154 153 152
           158 157 156
           158 156 159
           163 162 160
           162 161 160
           166 165 164
           166 164 167
           171 170 168
           170 169 168
           174 173 172
           174 172 175
           179 178 176
           178 177 176
           182 181 180
           182 180 183
           187 186 184
           186 185 184
           190 189 188
           190 188 191
           195 194 192
           194 193 192
           199 196 198
           196 197 198
           203 200 202
           200 201 202
           207 204 206
           204 205 206
           211 208 210
           208 209 210
           215 212 214
           212 213 214
           219 216 218
           216 217 218
           223 220 222
           220 221 222
           227 224 226
           224 225 226
           231 228 230
           228 229 230
        </DataArray>
        <DataArray type="Int32" Name="offsets" format="ascii">
           3
           6
           9
           12
           15
           18
           21
           24
           27
           30
           33
           36
           39
           42
           45
           48
           51
           54
           57
           60
           63
           66
           69
           72
           75
           78
           81
           84
           87
           90
           93
           96
           99
           102
           105
           108
           111
           114
           117
           120
           123
           126
           129
           132
           135
           138
           141
           144
           147
           150
           153
           156
           159
           162
           165
           168
           171
           174
           177
           180
           183
           186
           189
           192
           195
           198
           201
           204
           207
           210
           213
           216
           219
           222
           225
           228
           231
           234
           237
           240
           243
           246
           249
           252
           255
           258
           261
           264
           267
           270
           273
           276
           279
           282
           285
           288
           291
           294
           297
           300
           303
           306
           309
           312
           315
           318
           321
           324
           327
           330
           333
           336
           339
           342
           345
           348
        </DataArray>
        <DataArray type="UInt8" Name="types" format="ascii">
           5
           5
           5
           5
           5
           5
           5
           5
           5
           5
           5
           5
           5
           5
           5
           5
           5
           5
           5
           5
           5
           5
           5
           5
           5
           5
           5
           5
           5
           5
           5
           5
           5
           5
           5
           5
           5
           5
           5
           5
           5
           5
           5
           5
           5
           5
           5
           5
           5
           5
           5
           5
           5
           5
           5
           5
           5
           5
           5
           5
           5
           5
           5
           5
           5
           5
           5
           5
           5
           5
           5
           5
           5
           5
           5
           5
           5
           5
           5
           5
           5
           5
           5
           5
           5
           5
           5
           5
           5
           5
           5
           5
           5
           5
           5
           5
           5
           5
           5
           5
           5
           5
           5
           5
           5
           5
           5
           5
           5
           5
           5
           5
           5
           5
           5
           5
        </DataArray>
      </Cells>
      <CellData Scalars="GratingLines">
        <DataArray type="Float32" Name="GratingLines" format="ascii">
           5.800e+02
           5.800e+02
           5.900e+02
           5.900e+02
           5.800e+02
           5.800e+02
           5.900e+02
           5.900e+02
           5.800e+02
           5.800e+02
           5.800e+02
           5.800e+02
           5.900e+02
           5.900e+02
           5.800e+02
           5.800e+02
           5.900e+02
           5.900e+02
           5.800e+02
           5.800e+02
           5.900e+02
           5.900e+02
           5.800e+02
           5.800e+02
           5.900e+02
           5.900e+02
           5.800e+02
           5.800e+02
           5.900e+02
           5.900e+02
           5.800e+02
           5.800e+02
           5.900e+02
           5.900e+02
           5.800e+02
           5.800e+02
           5.900e+02
           5.900e+02
           5.800e+02
           5.800e+02
           5.900e+02
           5.900e+02
           5.800e+02
           5.800e+02
           5.900e+02
           5.900e+02
           5.800e+02
           5.800e+02
           5.900e+02
           5.900e+02
           5.800e+02
           5.800e+02
           5.900e+02
           5.900e+02
           5.800e+02
           5.800e+02
           5.900e+02
           5.900e+02
           5.800e+02
           5.800e+02
           5.900e+02
           5.900e+02
           5.800e+02
           5.800e+02
           5.900e+02
           5.900e+02
           5.800e+02
           5.800e+02
           5.900e+02
           5.900e+02
           5.800e+02
           5.800e+02
           5.900e+02
           5.900e+02
           5.800e+02
           5.800e+02
           5.900e+02
           5.900e+02
           5.800e+02
           5.800e+02
           5.900e+02
           5.900e+02
           5.800e+02
           5.800e+02
           5.900e+02
           5.900e+02
           5.800e+02
           5.800e+02
           5.900e+02
           5.900e+02
           5.800e+02
           5.800e+02
           5.900e+02
           5.900e+02
           5.800e+02
           5.800e+02
           5.900e+02
           5.900e+02
           5.800e+02
           5.800e+02
           5.900e+02
           5.900e+02
           5.800e+02
           5.800e+02
           5.900e+02
           5.900e+02
           5.800e+02
           5.800e+02
           5.900e+02
           5.900e+02
           5.800e+02
           5.800e+02
           5.900e+02
           5.900e+02
           5.800e+02
           5.800e+02
        </DataArray>
      </CellData>
    </Piece>
  </UnstructuredGrid>
</VTKFile>
