<?xml version="1.0"?>
<VTKFile type="UnstructuredGrid" version="0.1" byte_order="LittleEndian" compressor="vtkZLibDataCompressor">
  <UnstructuredGrid>
    <Piece NumberOfPoints="35" NumberOfCells="58">
      <Points>
        <DataArray type="Float32" NumberOfComponents="3" format="ascii">
          2.302e+04 -6.961e+03 1.850e+04
          2.341e+04 -1.011e+04 1.850e+04
          2.351e+04 -5.408e+03 1.850e+04
          2.391e+04 -8.556e+03 1.850e+04
          2.441e+04 -7.003e+03 1.850e+04
          2.480e+04 -1.015e+04 1.850e+04
          2.490e+04 -5.450e+03 1.850e+04
          2.530e+04 -8.597e+03 1.850e+04
          2.580e+04 -7.044e+03 1.850e+04
          2.619e+04 -1.019e+04 1.850e+04
          2.629e+04 -5.491e+03 1.850e+04
          2.669e+04 -8.639e+03 1.850e+04
          2.718e+04 -7.086e+03 1.850e+04
          2.758e+04 -1.023e+04 1.850e+04
          2.768e+04 -5.533e+03 1.850e+04
          2.808e+04 -8.680e+03 1.850e+04
          2.857e+04 -7.127e+03 1.850e+04
          2.897e+04 -1.028e+04 1.850e+04
          2.907e+04 -5.574e+03 1.850e+04
          2.947e+04 -8.722e+03 1.850e+04
          2.996e+04 -7.169e+03 1.850e+04
          3.036e+04 -1.032e+04 1.850e+04
          3.046e+04 -5.616e+03 1.850e+04
          3.086e+04 -8.764e+03 1.850e+04
          3.135e+04 -7.211e+03 1.850e+04
          3.175e+04 -1.036e+04 1.850e+04
          3.185e+04 -5.658e+03 1.850e+04
          3.224e+04 -8.805e+03 1.850e+04
          3.274e+04 -7.252e+03 1.850e+04
          3.314e+04 -1.040e+04 1.850e+04
          3.324e+04 -5.699e+03 1.850e+04
          3.363e+04 -8.847e+03 1.850e+04
          3.413e+04 -7.294e+03 1.850e+04
          3.453e+04 -1.044e+04 1.850e+04
          3.463e+04 -5.741e+03 1.850e+04
        </DataArray>
      </Points>
      <Cells>
        <DataArray type="Int32" Name="connectivity" format="ascii">
           3 0 1
           19 15 17
           5 3 1
           18 20 22
           28 24 27
           32 31 33
           16 12 15
           28 32 30
           30 32 34
           31 29 33
           7 9 11
           5 13 9
           5 9 7
           9 13 11
           16 15 19
           11 13 15
           18 16 20
           12 11 15
           12 8 11
           3 5 7
           8 12 10
           7 4 3
           10 12 14
           4 0 3
           6 8 10
           4 2 0
           22 20 24
           4 6 2
           12 16 14
           6 10 2
           6 4 8
           7 8 4
           7 11 8
           10 14 2
           19 23 20
           19 17 21
           14 18 22
           14 16 18
           16 19 20
           15 13 17
           22 26 14
           26 30 34
           26 24 28
           22 24 26
           20 23 24
           26 28 30
           24 23 27
           28 31 32
           25 23 21
           13 5 17
           28 27 31
           23 19 21
           27 23 25
           27 25 29
           21 17 25
           27 29 31
           25 17 29
           32 33 34
        </DataArray>
        <DataArray type="Int32" Name="offsets" format="ascii">
           3
           6
           9
           12
           15
           18
           21
           24
           27
           30
           33
           36
           39
           42
           45
           48
           51
           54
           57
           60
           63
           66
           69
           72
           75
           78
           81
           84
           87
           90
           93
           96
           99
           102
           105
           108
           111
           114
           117
           120
           123
           126
           129
           132
           135
           138
           141
           144
           147
           150
           153
           156
           159
           162
           165
           168
           171
           174
        </DataArray>
        <DataArray type="UInt8" Name="types" format="ascii">
           5
           5
           5
           5
           5
           5
           5
           5
           5
           5
           5
           5
           5
           5
           5
           5
           5
           5
           5
           5
           5
           5
           5
           5
           5
           5
           5
           5
           5
           5
           5
           5
           5
           5
           5
           5
           5
           5
           5
           5
           5
           5
           5
           5
           5
           5
           5
           5
           5
           5
           5
           5
           5
           5
           5
           5
           5
           5
        </DataArray>
      </Cells>
      <PointData Scalars="wavelength">
        <DataArray type="Float32" Name="wavelength" NumberOfComponents="1" format="ascii">
          6.200e+02
          6.200e+02
          6.200e+02
          6.200e+02
          6.200e+02
          6.200e+02
          6.200e+02
          6.200e+02
          6.200e+02
          6.200e+02
          6.200e+02
          6.200e+02
          6.200e+02
          6.200e+02
          6.200e+02
          6.200e+02
          6.200e+02
          6.200e+02
          6.200e+02
          6.200e+02
          6.200e+02
          6.200e+02
          6.200e+02
          6.200e+02
          6.200e+02
          6.200e+02
          6.200e+02
          6.200e+02
          6.200e+02
          6.200e+02
          6.200e+02
          6.200e+02
          6.200e+02
          6.200e+02
          6.200e+02
        </DataArray>
      </PointData>
    </Piece>
  </UnstructuredGrid>
</VTKFile>
