<?xml version="1.0"?>
<VTKFile type="UnstructuredGrid" version="0.1" byte_order="LittleEndian" compressor="vtkZLibDataCompressor">
  <UnstructuredGrid>
    <Piece NumberOfPoints="26523" NumberOfCells="20629">
      <Points>
        <DataArray type="Float32" NumberOfComponents="3" format="ascii">
          -3.040e+02 6.554e+02 5.000e+02
          -3.391e+02 7.518e+02 5.000e+02
          -4.279e+02 8.031e+02 5.000e+02
          -5.290e+02 7.853e+02 5.000e+02
          -5.949e+02 7.067e+02 5.000e+02
          -5.949e+02 6.041e+02 5.000e+02
          -5.290e+02 5.255e+02 5.000e+02
          -4.279e+02 5.077e+02 5.000e+02
          -3.391e+02 5.590e+02 5.000e+02
          -7.699e+01 3.277e+02 5.000e+02
          -1.121e+02 4.241e+02 5.000e+02
          -2.009e+02 4.754e+02 5.000e+02
          -3.020e+02 4.576e+02 5.000e+02
          -3.679e+02 3.790e+02 5.000e+02
          -3.679e+02 2.764e+02 5.000e+02
          -3.020e+02 1.978e+02 5.000e+02
          -2.009e+02 1.800e+02 5.000e+02
          -1.121e+02 2.313e+02 5.000e+02
          1.500e+02 0.000e+00 5.000e+02
          1.149e+02 9.642e+01 5.000e+02
          2.605e+01 1.477e+02 5.000e+02
          -7.500e+01 1.299e+02 5.000e+02
          -1.410e+02 5.130e+01 5.000e+02
          -1.410e+02 -5.130e+01 5.000e+02
          -7.500e+01 -1.299e+02 5.000e+02
          2.605e+01 -1.477e+02 5.000e+02
          1.149e+02 -9.642e+01 5.000e+02
          3.383e+02 -3.488e+02 5.000e+02
          3.032e+02 -2.524e+02 5.000e+02
          2.144e+02 -2.011e+02 5.000e+02
          1.133e+02 -2.189e+02 5.000e+02
          4.735e+01 -2.975e+02 5.000e+02
          4.735e+01 -4.001e+02 5.000e+02
          1.133e+02 -4.787e+02 5.000e+02
          2.144e+02 -4.966e+02 5.000e+02
          3.032e+02 -4.452e+02 5.000e+02
          5.266e+02 -6.977e+02 5.000e+02
          4.915e+02 -6.012e+02 5.000e+02
          4.027e+02 -5.499e+02 5.000e+02
          3.016e+02 -5.678e+02 5.000e+02
          2.357e+02 -6.464e+02 5.000e+02
          2.357e+02 -7.490e+02 5.000e+02
          3.016e+02 -8.276e+02 5.000e+02
          4.027e+02 -8.454e+02 5.000e+02
          4.915e+02 -7.941e+02 5.000e+02
          7.149e+02 -1.046e+03 5.000e+02
          6.798e+02 -9.501e+02 5.000e+02
          5.910e+02 -8.988e+02 5.000e+02
          4.899e+02 -9.166e+02 5.000e+02
          4.240e+02 -9.952e+02 5.000e+02
          4.240e+02 -1.098e+03 5.000e+02
          4.899e+02 -1.176e+03 5.000e+02
          5.910e+02 -1.194e+03 5.000e+02
          6.798e+02 -1.143e+03 5.000e+02
          9.032e+02 -1.395e+03 5.000e+02
          8.681e+02 -1.299e+03 5.000e+02
          7.793e+02 -1.248e+03 5.000e+02
          6.782e+02 -1.265e+03 5.000e+02
          6.123e+02 -1.344e+03 5.000e+02
          6.123e+02 -1.447e+03 5.000e+02
          6.782e+02 -1.525e+03 5.000e+02
          7.793e+02 -1.543e+03 5.000e+02
          8.681e+02 -1.492e+03 5.000e+02
          1.092e+03 -1.744e+03 5.000e+02
          1.056e+03 -1.648e+03 5.000e+02
          9.676e+02 -1.596e+03 5.000e+02
          8.665e+02 -1.614e+03 5.000e+02
          8.006e+02 -1.693e+03 5.000e+02
          8.006e+02 -1.795e+03 5.000e+02
          8.665e+02 -1.874e+03 5.000e+02
          9.676e+02 -1.892e+03 5.000e+02
          1.056e+03 -1.841e+03 5.000e+02
          1.280e+03 -2.093e+03 5.000e+02
          1.245e+03 -1.997e+03 5.000e+02
          1.156e+03 -1.945e+03 5.000e+02
          1.055e+03 -1.963e+03 5.000e+02
          9.889e+02 -2.042e+03 5.000e+02
          9.889e+02 -2.144e+03 5.000e+02
          1.055e+03 -2.223e+03 5.000e+02
          1.156e+03 -2.241e+03 5.000e+02
          1.245e+03 -2.189e+03 5.000e+02
          1.468e+03 -2.442e+03 5.000e+02
          1.433e+03 -2.345e+03 5.000e+02
          1.344e+03 -2.294e+03 5.000e+02
          1.243e+03 -2.312e+03 5.000e+02
          1.177e+03 -2.391e+03 5.000e+02
          1.177e+03 -2.493e+03 5.000e+02
          1.243e+03 -2.572e+03 5.000e+02
          1.344e+03 -2.590e+03 5.000e+02
          1.433e+03 -2.538e+03 5.000e+02
          1.656e+03 -2.791e+03 5.000e+02
          1.621e+03 -2.694e+03 5.000e+02
          1.532e+03 -2.643e+03 5.000e+02
          1.431e+03 -2.661e+03 5.000e+02
          1.365e+03 -2.739e+03 5.000e+02
          1.365e+03 -2.842e+03 5.000e+02
          1.431e+03 -2.921e+03 5.000e+02
          1.532e+03 -2.938e+03 5.000e+02
          1.621e+03 -2.887e+03 5.000e+02
          1.845e+03 -3.139e+03 5.000e+02
          1.810e+03 -3.043e+03 5.000e+02
          1.721e+03 -2.992e+03 5.000e+02
          1.620e+03 -3.010e+03 5.000e+02
          1.554e+03 -3.088e+03 5.000e+02
          1.554e+03 -3.191e+03 5.000e+02
          1.620e+03 -3.269e+03 5.000e+02
          1.721e+03 -3.287e+03 5.000e+02
          1.810e+03 -3.236e+03 5.000e+02
          2.033e+03 -3.488e+03 5.000e+02
          1.998e+03 -3.392e+03 5.000e+02
          1.909e+03 -3.341e+03 5.000e+02
          1.808e+03 -3.358e+03 5.000e+02
          1.742e+03 -3.437e+03 5.000e+02
          1.742e+03 -3.540e+03 5.000e+02
          1.808e+03 -3.618e+03 5.000e+02
          1.909e+03 -3.636e+03 5.000e+02
          1.998e+03 -3.585e+03 5.000e+02
          2.221e+03 -3.837e+03 5.000e+02
          2.186e+03 -3.741e+03 5.000e+02
          2.097e+03 -3.689e+03 5.000e+02
          1.996e+03 -3.707e+03 5.000e+02
          1.930e+03 -3.786e+03 5.000e+02
          1.930e+03 -3.888e+03 5.000e+02
          1.996e+03 -3.967e+03 5.000e+02
          2.097e+03 -3.985e+03 5.000e+02
          2.186e+03 -3.934e+03 5.000e+02
          2.410e+03 -4.186e+03 5.000e+02
          2.375e+03 -4.090e+03 5.000e+02
          2.286e+03 -4.038e+03 5.000e+02
          2.185e+03 -4.056e+03 5.000e+02
          2.119e+03 -4.135e+03 5.000e+02
          2.119e+03 -4.237e+03 5.000e+02
          2.185e+03 -4.316e+03 5.000e+02
          2.286e+03 -4.334e+03 5.000e+02
          2.375e+03 -4.282e+03 5.000e+02
          2.565e+03 -3.850e+03 5.000e+02
          2.530e+03 -3.754e+03 5.000e+02
          2.441e+03 -3.703e+03 5.000e+02
          2.340e+03 -3.721e+03 5.000e+02
          2.274e+03 -3.799e+03 5.000e+02
          2.274e+03 -3.902e+03 5.000e+02
          2.340e+03 -3.980e+03 5.000e+02
          2.441e+03 -3.998e+03 5.000e+02
          2.530e+03 -3.947e+03 5.000e+02
          2.598e+03 -4.535e+03 5.000e+02
          2.563e+03 -4.438e+03 5.000e+02
          2.474e+03 -4.387e+03 5.000e+02
          2.373e+03 -4.405e+03 5.000e+02
          2.307e+03 -4.483e+03 5.000e+02
          2.307e+03 -4.586e+03 5.000e+02
          2.373e+03 -4.665e+03 5.000e+02
          2.474e+03 -4.683e+03 5.000e+02
          2.563e+03 -4.631e+03 5.000e+02
          2.753e+03 -4.199e+03 5.000e+02
          2.718e+03 -4.103e+03 5.000e+02
          2.629e+03 -4.052e+03 5.000e+02
          2.528e+03 -4.069e+03 5.000e+02
          2.462e+03 -4.148e+03 5.000e+02
          2.462e+03 -4.251e+03 5.000e+02
          2.528e+03 -4.329e+03 5.000e+02
          2.629e+03 -4.347e+03 5.000e+02
          2.718e+03 -4.296e+03 5.000e+02
          2.786e+03 -4.884e+03 5.000e+02
          2.751e+03 -4.787e+03 5.000e+02
          2.662e+03 -4.736e+03 5.000e+02
          2.561e+03 -4.754e+03 5.000e+02
          2.495e+03 -4.832e+03 5.000e+02
          2.495e+03 -4.935e+03 5.000e+02
          2.561e+03 -5.014e+03 5.000e+02
          2.662e+03 -5.031e+03 5.000e+02
          2.751e+03 -4.980e+03 5.000e+02
          2.909e+03 -3.864e+03 5.000e+02
          2.873e+03 -3.767e+03 5.000e+02
          2.785e+03 -3.716e+03 5.000e+02
          2.684e+03 -3.734e+03 5.000e+02
          2.618e+03 -3.812e+03 5.000e+02
          2.618e+03 -3.915e+03 5.000e+02
          2.684e+03 -3.994e+03 5.000e+02
          2.785e+03 -4.011e+03 5.000e+02
          2.873e+03 -3.960e+03 5.000e+02
          2.942e+03 -4.548e+03 5.000e+02
          2.906e+03 -4.452e+03 5.000e+02
          2.818e+03 -4.400e+03 5.000e+02
          2.717e+03 -4.418e+03 5.000e+02
          2.651e+03 -4.497e+03 5.000e+02
          2.651e+03 -4.599e+03 5.000e+02
          2.717e+03 -4.678e+03 5.000e+02
          2.818e+03 -4.696e+03 5.000e+02
          2.906e+03 -4.644e+03 5.000e+02
          2.975e+03 -5.232e+03 5.000e+02
          2.939e+03 -5.136e+03 5.000e+02
          2.851e+03 -5.085e+03 5.000e+02
          2.750e+03 -5.103e+03 5.000e+02
          2.684e+03 -5.181e+03 5.000e+02
          2.684e+03 -5.284e+03 5.000e+02
          2.750e+03 -5.362e+03 5.000e+02
          2.851e+03 -5.380e+03 5.000e+02
          2.939e+03 -5.329e+03 5.000e+02
          3.097e+03 -4.213e+03 5.000e+02
          3.062e+03 -4.116e+03 5.000e+02
          2.973e+03 -4.065e+03 5.000e+02
          2.872e+03 -4.083e+03 5.000e+02
          2.806e+03 -4.161e+03 5.000e+02
          2.806e+03 -4.264e+03 5.000e+02
          2.872e+03 -4.342e+03 5.000e+02
          2.973e+03 -4.360e+03 5.000e+02
          3.062e+03 -4.309e+03 5.000e+02
          3.130e+03 -4.897e+03 5.000e+02
          3.095e+03 -4.800e+03 5.000e+02
          3.006e+03 -4.749e+03 5.000e+02
          2.905e+03 -4.767e+03 5.000e+02
          2.839e+03 -4.846e+03 5.000e+02
          2.839e+03 -4.948e+03 5.000e+02
          2.905e+03 -5.027e+03 5.000e+02
          3.006e+03 -5.045e+03 5.000e+02
          3.095e+03 -4.993e+03 5.000e+02
          3.163e+03 -5.581e+03 5.000e+02
          3.128e+03 -5.485e+03 5.000e+02
          3.039e+03 -5.434e+03 5.000e+02
          2.938e+03 -5.451e+03 5.000e+02
          2.872e+03 -5.530e+03 5.000e+02
          2.872e+03 -5.633e+03 5.000e+02
          2.938e+03 -5.711e+03 5.000e+02
          3.039e+03 -5.729e+03 5.000e+02
          3.128e+03 -5.678e+03 5.000e+02
          3.252e+03 -3.877e+03 5.000e+02
          3.217e+03 -3.781e+03 5.000e+02
          3.128e+03 -3.729e+03 5.000e+02
          3.027e+03 -3.747e+03 5.000e+02
          2.961e+03 -3.826e+03 5.000e+02
[...]
      <CellData Scalars="Wavelength">
        <DataArray type="Float32" Name="Real_RI" format="ascii">
           4.500e+02
           4.500e+02
           4.500e+02
           4.500e+02
           4.500e+02
           4.500e+02
           4.500e+02
           4.500e+02
           4.500e+02
           4.500e+02
           4.500e+02
           4.500e+02
           4.500e+02
           4.500e+02
           4.500e+02
           4.500e+02
           4.500e+02
           4.500e+02
           4.500e+02
           4.500e+02
           4.500e+02
           4.500e+02
           4.500e+02
           4.500e+02
           4.500e+02
           4.500e+02
           4.500e+02
           4.500e+02
           4.500e+02
           4.500e+02
           4.500e+02
           4.500e+02
           4.500e+02
           4.500e+02
           4.500e+02
           4.500e+02
           4.500e+02
           4.500e+02
           4.500e+02
           4.500e+02
           4.500e+02
           4.500e+02
           4.500e+02
           4.500e+02
           4.500e+02
           4.500e+02
           4.500e+02
           4.500e+02
           4.500e+02
           4.500e+02
           4.500e+02
           4.500e+02
           4.500e+02
           4.500e+02
           4.500e+02
           4.500e+02
           4.500e+02
           4.500e+02
           4.500e+02
           4.500e+02
           4.500e+02
           4.500e+02
           4.500e+02
           4.500e+02
           4.500e+02
           4.500e+02
           4.500e+02
           4.500e+02
           4.500e+02
           4.500e+02
           4.500e+02
           4.500e+02
           4.500e+02
           4.500e+02
           4.500e+02
           4.500e+02
           4.500e+02
           4.500e+02
           4.500e+02
           4.500e+02
           4.500e+02
           4.500e+02
           4.500e+02
           4.500e+02
           4.500e+02
           4.500e+02
           4.500e+02
           4.500e+02
           4.500e+02
           4.500e+02
           4.500e+02
           4.500e+02
           4.500e+02
           4.500e+02
           4.500e+02
           4.500e+02
           4.500e+02
           4.500e+02
           4.500e+02
           4.500e+02
           4.500e+02
           4.500e+02
           4.500e+02
           4.500e+02
           4.500e+02
           4.500e+02
           4.500e+02
           4.500e+02
           4.500e+02
           4.500e+02
           4.500e+02
           4.500e+02
           4.500e+02
           4.500e+02
           4.500e+02
           4.500e+02
           4.500e+02
           4.500e+02
           4.500e+02
           4.500e+02
           4.500e+02
           4.500e+02
           4.500e+02
           4.500e+02
           4.500e+02
           4.500e+02
           4.500e+02
           4.500e+02
           4.500e+02
           4.500e+02
           4.500e+02
           4.500e+02
           4.500e+02
           4.500e+02
           4.500e+02
           4.500e+02
           4.500e+02
           4.500e+02
           4.500e+02
           4.500e+02
           4.500e+02
           4.500e+02
           4.500e+02
           4.500e+02
           4.500e+02
           4.500e+02
           4.500e+02
           4.500e+02
           4.500e+02
           4.500e+02
           4.500e+02
           4.500e+02
           4.500e+02
           4.500e+02
           4.500e+02
           4.500e+02
           4.500e+02
           4.500e+02
           4.500e+02
           4.500e+02
           4.500e+02
           4.500e+02
           4.500e+02
           4.500e+02
           4.500e+02
           4.500e+02
           4.500e+02
           4.500e+02
           4.500e+02
           4.500e+02
           4.500e+02
           4.500e+02
           4.500e+02
           4.500e+02
           4.500e+02
           4.500e+02
           4.500e+02
           4.500e+02
           4.500e+02
           4.500e+02
           4.500e+02
           4.500e+02
           4.500e+02
           4.500e+02
           4.500e+02
           4.500e+02
           4.500e+02
           4.500e+02
           4.500e+02
           4.500e+02
           4.500e+02
           4.500e+02
           4.500e+02
           4.500e+02
           4.500e+02
           4.500e+02
           4.500e+02
           4.500e+02
           4.500e+02
           4.500e+02
           4.500e+02
           4.500e+02
           4.500e+02
           4.500e+02
           4.500e+02
           4.500e+02
           4.500e+02
           4.500e+02
           4.500e+02
           4.500e+02
           4.500e+02
           4.500e+02
           4.500e+02
           4.500e+02
           4.500e+02
           4.500e+02
           4.500e+02
           4.500e+02
           4.500e+02
           4.500e+02
           4.500e+02
           4.500e+02
           4.500e+02
           4.500e+02
           4.500e+02
           4.500e+02
           4.500e+02
           4.500e+02
           4.500e+02
           4.500e+02
           4.500e+02
           4.500e+02
           4.500e+02
           4.500e+02
           4.500e+02
           4.500e+02
           4.500e+02
           4.500e+02
           4.500e+02
           4.500e+02
           4.500e+02
           4.500e+02
           4.500e+02
           4.500e+02
           4.500e+02
           4.500e+02
           4.500e+02
           4.500e+02
           4.500e+02
           4.500e+02
           4.500e+02
           4.500e+02
           4.500e+02
           4.500e+02
           4.500e+02
           4.500e+02
           4.500e+02
           4.500e+02
           4.500e+02
           4.500e+02
           4.500e+02
           4.500e+02
           4.500e+02
           4.500e+02
           4.500e+02
           4.500e+02
           4.500e+02
           4.500e+02
           4.500e+02
           4.500e+02
           4.500e+02
           4.500e+02
           4.500e+02
           4.500e+02
           4.500e+02
           4.500e+02
           4.500e+02
           4.500e+02
           4.500e+02
           4.500e+02
           4.500e+02
           4.500e+02
           4.500e+02
           4.500e+02
           4.500e+02
           4.500e+02
           4.500e+02
           4.500e+02
           4.500e+02
           4.500e+02
           4.500e+02
           4.500e+02
           4.500e+02
           4.500e+02
           4.500e+02
           4.500e+02
           4.500e+02
           4.500e+02
           4.500e+02
           4.500e+02
           4.500e+02
           4.500e+02
           4.500e+02
           4.500e+02
           4.500e+02
           4.500e+02
           4.500e+02
           4.500e+02
           4.500e+02
           4.500e+02
           4.500e+02
           4.500e+02
           4.500e+02
           4.500e+02
           4.500e+02
           4.500e+02
           4.500e+02
           4.500e+02
           4.500e+02
           4.500e+02
           4.500e+02
           4.500e+02
           4.500e+02
           4.500e+02
           4.500e+02
           4.500e+02
           4.500e+02
           4.500e+02
           4.500e+02
           4.500e+02
           4.500e+02
           4.500e+02
           4.500e+02
           4.500e+02
           4.500e+02
           4.500e+02
           4.500e+02
           4.500e+02
           4.500e+02
           4.500e+02
           4.500e+02
           4.500e+02
           4.500e+02
           4.500e+02
           4.500e+02
           4.500e+02
           4.500e+02
           4.500e+02
           4.500e+02
           4.500e+02
           4.500e+02
           4.500e+02
           4.500e+02
           4.500e+02
           4.500e+02
           4.500e+02
           4.500e+02
           4.500e+02
           4.500e+02
           4.500e+02
           4.500e+02
           4.500e+02
           4.500e+02
           4.500e+02
           4.500e+02
           4.500e+02
           4.500e+02
           4.500e+02
           4.500e+02
           4.500e+02
           4.500e+02
           4.500e+02
           4.500e+02
           4.500e+02
           4.500e+02
           4.500e+02
           4.500e+02
           4.500e+02
           4.500e+02
           4.500e+02
           4.500e+02
           4.500e+02
           4.500e+02
           4.500e+02
           4.500e+02
           4.500e+02
           4.500e+02
           4.500e+02
           4.500e+02
           4.500e+02
           4.500e+02
           4.500e+02
           4.500e+02
           4.500e+02
           4.500e+02
           4.500e+02
           4.500e+02
           4.500e+02
           4.500e+02
           4.500e+02
           4.500e+02
           4.500e+02
           4.500e+02
           4.500e+02
           4.500e+02
           4.500e+02
           4.500e+02
           4.500e+02
           4.500e+02
           4.500e+02
           4.500e+02
           4.500e+02
           4.500e+02
           4.500e+02
           4.500e+02
           4.500e+02
           4.500e+02
           4.500e+02
           4.500e+02
           4.500e+02
           4.500e+02
           4.500e+02
           4.500e+02
           4.500e+02
           4.500e+02
           4.500e+02
           4.500e+02
           4.500e+02
           4.500e+02
           4.500e+02
           4.500e+02
           4.500e+02
           4.500e+02
           4.500e+02
           4.500e+02
           4.500e+02
           4.500e+02
           4.500e+02
           4.500e+02
           4.500e+02
           4.500e+02
           4.500e+02
           4.500e+02
           4.500e+02
           4.500e+02
           4.500e+02
           4.500e+02
           4.500e+02
           4.500e+02
           4.500e+02
           4.500e+02
           4.500e+02
           4.500e+02
           4.500e+02
           4.500e+02
           4.500e+02
           4.500e+02
           4.500e+02
           4.500e+02
           4.500e+02
           4.500e+02
           4.500e+02
           4.500e+02
           4.500e+02
           4.500e+02
           4.500e+02
           4.500e+02
           4.500e+02
           4.500e+02
           4.500e+02
           4.500e+02
           4.500e+02
           4.500e+02
           4.500e+02
           4.500e+02
           4.500e+02
           4.500e+02
           4.500e+02
           4.500e+02
           4.500e+02
           4.500e+02
           4.500e+02
           4.500e+02
           4.500e+02
           4.500e+02
           4.500e+02
           4.500e+02
           4.500e+02
           4.500e+02
           4.500e+02
           4.500e+02
           4.500e+02
           4.500e+02
           4.500e+02
           4.500e+02
           4.500e+02
           4.500e+02
           4.500e+02
           4.500e+02
           4.500e+02
           4.500e+02
           4.500e+02
           4.500e+02
           4.500e+02
           4.500e+02
           4.500e+02
           4.500e+02
           4.500e+02
           4.500e+02
           4.500e+02
           4.500e+02
           4.500e+02
           4.500e+02
           4.500e+02
           4.500e+02
           4.500e+02
           4.500e+02
           4.500e+02
           4.500e+02
           4.500e+02
           4.500e+02
           4.500e+02
           4.500e+02
           4.500e+02
           4.500e+02
           4.500e+02
           4.500e+02
           4.500e+02
           4.500e+02
           4.500e+02
           4.500e+02
           4.500e+02
           4.500e+02
           4.500e+02
           4.500e+02
           4.500e+02
           4.500e+02
           4.500e+02
           4.500e+02
           4.500e+02
           4.500e+02
           4.500e+02
           4.500e+02
           4.500e+02
           4.500e+02
           4.500e+02
           4.500e+02
           4.500e+02
           4.500e+02
           4.500e+02
           4.500e+02
           4.500e+02
           4.500e+02
           4.500e+02
           4.500e+02
           4.500e+02
           4.500e+02
           4.500e+02
           4.500e+02
           4.500e+02
           4.500e+02
           4.500e+02
           4.500e+02
           4.500e+02
           4.500e+02
           4.500e+02
           4.500e+02
           4.500e+02
           4.500e+02
           4.500e+02
           4.500e+02
           4.500e+02
           4.500e+02
           4.500e+02
           4.500e+02
           4.500e+02
           4.500e+02
           4.500e+02
           4.500e+02
           4.500e+02
           4.500e+02
           4.500e+02
           4.500e+02
           4.500e+02
           4.500e+02
           4.500e+02
           4.500e+02
           4.500e+02
           4.500e+02
           4.500e+02
           4.500e+02
           4.500e+02
           4.500e+02
           4.500e+02
           4.500e+02
           4.500e+02
           4.500e+02
           4.500e+02
           4.500e+02
           4.500e+02
           4.500e+02
           4.500e+02
           4.500e+02
           4.500e+02
           4.500e+02
           4.500e+02
           4.500e+02
           4.500e+02
           4.500e+02
           4.500e+02
           4.500e+02
           4.500e+02
           4.500e+02
           4.500e+02
           4.500e+02
           4.500e+02
           4.500e+02
           4.500e+02
           4.500e+02
           4.500e+02
           4.500e+02
           4.500e+02
           4.500e+02
           4.500e+02
           4.500e+02
           4.500e+02
           4.500e+02
           4.500e+02
           4.500e+02
           4.500e+02
           4.500e+02
           4.500e+02
           4.500e+02
           4.500e+02
           4.500e+02
           4.500e+02
           4.500e+02
           4.500e+02
           4.500e+02
           4.500e+02
           4.500e+02
           4.500e+02
           4.500e+02
           4.500e+02
           4.500e+02
           4.500e+02
           4.500e+02
           4.500e+02
           4.500e+02
           4.500e+02
           4.500e+02
           4.500e+02
           4.500e+02
           4.500e+02
           4.500e+02
           4.500e+02
           4.500e+02
           4.500e+02
           4.500e+02
           4.500e+02
           4.500e+02
           4.500e+02
           4.500e+02
           4.500e+02
           4.500e+02
           4.500e+02
           4.500e+02
           4.500e+02
           4.500e+02
           4.500e+02
           4.500e+02
           4.500e+02
           4.500e+02
           4.500e+02
           4.500e+02
           4.500e+02
           4.500e+02
           4.500e+02
           4.500e+02
           4.500e+02
           4.500e+02
           4.500e+02
           4.500e+02
           4.500e+02
           4.500e+02
           4.500e+02
           4.500e+02
           4.500e+02
           4.500e+02
           4.500e+02
           4.500e+02
           4.500e+02
           4.500e+02
           4.500e+02
           4.500e+02
           4.500e+02
           4.500e+02
           4.500e+02
           4.500e+02
           4.500e+02
           4.500e+02
           4.500e+02
           4.500e+02
           4.500e+02
           4.500e+02
           4.500e+02
           4.500e+02
           4.500e+02
           4.500e+02
           4.500e+02
           4.500e+02
           4.500e+02
           4.500e+02
           4.500e+02
           4.500e+02
           4.500e+02
           4.500e+02
           4.500e+02
           4.500e+02
           4.500e+02
           4.500e+02
           4.500e+02
           4.500e+02
           4.500e+02
           4.500e+02
           4.500e+02
           4.500e+02
           4.500e+02
           4.500e+02
           4.500e+02
           4.500e+02
           4.500e+02
           4.500e+02
           4.500e+02
           4.500e+02
           4.500e+02
           4.500e+02
           4.500e+02
           4.500e+02
           4.500e+02
           4.500e+02
           4.500e+02
           4.500e+02
           4.500e+02
           4.500e+02
           4.500e+02
           4.500e+02
           4.500e+02
           4.500e+02
           4.500e+02
           4.500e+02
           4.500e+02
           4.500e+02
           4.500e+02
           4.500e+02
           4.500e+02
           4.500e+02
           4.500e+02
           4.500e+02
           4.500e+02
           4.500e+02
           4.500e+02
           4.500e+02
           4.500e+02
           4.500e+02
           4.500e+02
           4.500e+02
           4.500e+02
           4.500e+02
           4.500e+02
           4.500e+02
           4.500e+02
           4.500e+02
           4.500e+02
           4.500e+02
           4.500e+02
           4.500e+02
           4.500e+02
           4.500e+02
           4.500e+02
           4.500e+02
           4.500e+02
           4.500e+02
           4.500e+02
           4.500e+02
           4.500e+02
           4.500e+02
           4.500e+02
           4.500e+02
           4.500e+02
           4.500e+02
           4.500e+02
           4.500e+02
           4.500e+02
           4.500e+02
           4.500e+02
           4.500e+02
           4.500e+02
           4.500e+02
           4.500e+02
           4.500e+02
           4.500e+02
           4.500e+02
           4.500e+02
           4.500e+02
           4.500e+02
           4.500e+02
           4.500e+02
           4.500e+02
           4.500e+02
           4.500e+02
           4.500e+02
           4.500e+02
           4.500e+02
           4.500e+02
           4.500e+02
           4.500e+02
           4.500e+02
           4.500e+02
           4.500e+02
           4.500e+02
           4.500e+02
           4.500e+02
           4.500e+02
           4.500e+02
           4.500e+02
           4.500e+02
           4.500e+02
           4.500e+02
           4.500e+02
           4.500e+02
           4.500e+02
           4.500e+02
           4.500e+02
           4.500e+02
           4.500e+02
           4.500e+02
           4.500e+02
           4.500e+02
           4.500e+02
           4.500e+02
           4.500e+02
           4.500e+02
           4.500e+02
           4.500e+02
           4.500e+02
           4.500e+02
           4.500e+02
           4.500e+02
           4.500e+02
           4.500e+02
           4.500e+02
           4.500e+02
           4.500e+02
           4.500e+02
           4.500e+02
           4.500e+02
           4.500e+02
           4.500e+02
           4.500e+02
           4.500e+02
           4.500e+02
           4.500e+02
           4.500e+02
           4.500e+02
           4.500e+02
           4.500e+02
           4.500e+02
           4.500e+02
           4.500e+02
           4.500e+02
           4.500e+02
           4.500e+02
           4.500e+02
           4.500e+02
           4.500e+02
           4.500e+02
           4.500e+02
           4.500e+02
           4.500e+02
           4.500e+02
           4.500e+02
           4.500e+02
           4.500e+02
           4.500e+02
           4.500e+02
           4.500e+02
           4.500e+02
           4.500e+02
           4.500e+02
           4.500e+02
           4.500e+02
           4.500e+02
           4.500e+02
           4.500e+02
           4.500e+02
           4.500e+02
           4.500e+02
           4.500e+02
           4.500e+02
           4.500e+02
           4.500e+02
           4.500e+02
           4.500e+02