<?xml version="1.0"?>
<VTKFile type="UnstructuredGrid" version="0.1" byte_order="LittleEndian" compressor="vtkZLibDataCompressor">
  <UnstructuredGrid>
    <Piece NumberOfPoints="5868" NumberOfCells="4564">
      <Points>
        <DataArray type="Float32" NumberOfComponents="3" format="ascii">
          -3.644e+02 7.672e+02 5.000e+02
          -3.995e+02 8.637e+02 5.000e+02
          -4.884e+02 9.150e+02 5.000e+02
          -5.894e+02 8.972e+02 5.000e+02
          -6.554e+02 8.186e+02 5.000e+02
          -6.554e+02 7.159e+02 5.000e+02
          -5.894e+02 6.373e+02 5.000e+02
          -4.884e+02 6.195e+02 5.000e+02
          -3.995e+02 6.708e+02 5.000e+02
          1.500e+02 0.000e+00 5.000e+02
          1.149e+02 9.642e+01 5.000e+02
          2.605e+01 1.477e+02 5.000e+02
          -7.500e+01 1.299e+02 5.000e+02
          -1.410e+02 5.130e+01 5.000e+02
          -1.410e+02 -5.130e+01 5.000e+02
          -7.500e+01 -1.299e+02 5.000e+02
          2.605e+01 -1.477e+02 5.000e+02
          1.149e+02 -9.642e+01 5.000e+02
          5.962e+02 -7.973e+02 5.000e+02
          5.611e+02 -7.009e+02 5.000e+02
          4.722e+02 -6.496e+02 5.000e+02
          3.712e+02 -6.674e+02 5.000e+02
          3.052e+02 -7.460e+02 5.000e+02
          3.052e+02 -8.486e+02 5.000e+02
          3.712e+02 -9.272e+02 5.000e+02
          4.722e+02 -9.450e+02 5.000e+02
          5.611e+02 -8.937e+02 5.000e+02
          1.042e+03 -1.595e+03 5.000e+02
          1.007e+03 -1.498e+03 5.000e+02
          9.185e+02 -1.447e+03 5.000e+02
          8.174e+02 -1.465e+03 5.000e+02
          7.515e+02 -1.543e+03 5.000e+02
          7.515e+02 -1.646e+03 5.000e+02
          8.174e+02 -1.725e+03 5.000e+02
          9.185e+02 -1.742e+03 5.000e+02
          1.007e+03 -1.691e+03 5.000e+02
          1.489e+03 -2.392e+03 5.000e+02
          1.454e+03 -2.296e+03 5.000e+02
          1.365e+03 -2.244e+03 5.000e+02
          1.264e+03 -2.262e+03 5.000e+02
          1.198e+03 -2.341e+03 5.000e+02
          1.198e+03 -2.443e+03 5.000e+02
          1.264e+03 -2.522e+03 5.000e+02
          1.365e+03 -2.540e+03 5.000e+02
          1.454e+03 -2.488e+03 5.000e+02
          1.935e+03 -3.189e+03 5.000e+02
          1.900e+03 -3.093e+03 5.000e+02
          1.811e+03 -3.042e+03 5.000e+02
          1.710e+03 -3.059e+03 5.000e+02
          1.644e+03 -3.138e+03 5.000e+02
          1.644e+03 -3.241e+03 5.000e+02
          1.710e+03 -3.319e+03 5.000e+02
          1.811e+03 -3.337e+03 5.000e+02
          1.900e+03 -3.286e+03 5.000e+02
          2.381e+03 -3.987e+03 5.000e+02
          2.346e+03 -3.890e+03 5.000e+02
          2.257e+03 -3.839e+03 5.000e+02
          2.156e+03 -3.857e+03 5.000e+02
          2.090e+03 -3.935e+03 5.000e+02
          2.090e+03 -4.038e+03 5.000e+02
          2.156e+03 -4.117e+03 5.000e+02
          2.257e+03 -4.134e+03 5.000e+02
          2.346e+03 -4.083e+03 5.000e+02
          2.827e+03 -4.784e+03 5.000e+02
          2.792e+03 -4.688e+03 5.000e+02
          2.703e+03 -4.636e+03 5.000e+02
          2.602e+03 -4.654e+03 5.000e+02
          2.536e+03 -4.733e+03 5.000e+02
          2.536e+03 -4.835e+03 5.000e+02
          2.602e+03 -4.914e+03 5.000e+02
          2.703e+03 -4.932e+03 5.000e+02
          2.792e+03 -4.880e+03 5.000e+02
          3.076e+03 -4.007e+03 5.000e+02
          3.040e+03 -3.911e+03 5.000e+02
          2.952e+03 -3.860e+03 5.000e+02
          2.851e+03 -3.878e+03 5.000e+02
          2.785e+03 -3.956e+03 5.000e+02
          2.785e+03 -4.059e+03 5.000e+02
          2.851e+03 -4.137e+03 5.000e+02
          2.952e+03 -4.155e+03 5.000e+02
          3.040e+03 -4.104e+03 5.000e+02
          3.273e+03 -5.581e+03 5.000e+02
          3.238e+03 -5.485e+03 5.000e+02
          3.149e+03 -5.434e+03 5.000e+02
          3.048e+03 -5.451e+03 5.000e+02
          2.982e+03 -5.530e+03 5.000e+02
          2.982e+03 -5.633e+03 5.000e+02
          3.048e+03 -5.711e+03 5.000e+02
          3.149e+03 -5.729e+03 5.000e+02
          3.238e+03 -5.678e+03 5.000e+02
          3.522e+03 -4.805e+03 5.000e+02
          3.487e+03 -4.708e+03 5.000e+02
          3.398e+03 -4.657e+03 5.000e+02
          3.297e+03 -4.675e+03 5.000e+02
          3.231e+03 -4.753e+03 5.000e+02
          3.231e+03 -4.856e+03 5.000e+02
          3.297e+03 -4.935e+03 5.000e+02
          3.398e+03 -4.952e+03 5.000e+02
          3.487e+03 -4.901e+03 5.000e+02
          3.720e+03 -6.379e+03 5.000e+02
          3.685e+03 -6.282e+03 5.000e+02
          3.596e+03 -6.231e+03 5.000e+02
          3.495e+03 -6.249e+03 5.000e+02
          3.429e+03 -6.327e+03 5.000e+02
          3.429e+03 -6.430e+03 5.000e+02
          3.495e+03 -6.508e+03 5.000e+02
          3.596e+03 -6.526e+03 5.000e+02
          3.685e+03 -6.475e+03 5.000e+02
          3.770e+03 -4.028e+03 5.000e+02
          3.735e+03 -3.932e+03 5.000e+02
          3.646e+03 -3.880e+03 5.000e+02
          3.545e+03 -3.898e+03 5.000e+02
          3.479e+03 -3.977e+03 5.000e+02
          3.479e+03 -4.080e+03 5.000e+02
          3.545e+03 -4.158e+03 5.000e+02
          3.646e+03 -4.176e+03 5.000e+02
          3.735e+03 -4.125e+03 5.000e+02
          3.968e+03 -5.602e+03 5.000e+02
          3.933e+03 -5.506e+03 5.000e+02
          3.844e+03 -5.454e+03 5.000e+02
          3.743e+03 -5.472e+03 5.000e+02
          3.677e+03 -5.551e+03 5.000e+02
          3.677e+03 -5.653e+03 5.000e+02
          3.743e+03 -5.732e+03 5.000e+02
          3.844e+03 -5.750e+03 5.000e+02
          3.933e+03 -5.698e+03 5.000e+02
          4.166e+03 -7.176e+03 5.000e+02
          4.131e+03 -7.079e+03 5.000e+02
          4.042e+03 -7.028e+03 5.000e+02
          3.941e+03 -7.046e+03 5.000e+02
          3.875e+03 -7.125e+03 5.000e+02
          3.875e+03 -7.227e+03 5.000e+02
          3.941e+03 -7.306e+03 5.000e+02
          4.042e+03 -7.324e+03 5.000e+02
          4.131e+03 -7.272e+03 5.000e+02
          4.216e+03 -4.826e+03 5.000e+02
          4.181e+03 -4.729e+03 5.000e+02
          4.092e+03 -4.678e+03 5.000e+02
          3.991e+03 -4.696e+03 5.000e+02
          3.925e+03 -4.774e+03 5.000e+02
          3.925e+03 -4.877e+03 5.000e+02
          3.991e+03 -4.955e+03 5.000e+02
          4.092e+03 -4.973e+03 5.000e+02
          4.181e+03 -4.922e+03 5.000e+02
          4.414e+03 -6.399e+03 5.000e+02
          4.379e+03 -6.303e+03 5.000e+02
          4.290e+03 -6.252e+03 5.000e+02
          4.189e+03 -6.269e+03 5.000e+02
          4.123e+03 -6.348e+03 5.000e+02
          4.123e+03 -6.451e+03 5.000e+02
          4.189e+03 -6.529e+03 5.000e+02
          4.290e+03 -6.547e+03 5.000e+02
          4.379e+03 -6.496e+03 5.000e+02
          4.465e+03 -4.049e+03 5.000e+02
          4.430e+03 -3.953e+03 5.000e+02
          4.341e+03 -3.901e+03 5.000e+02
          4.240e+03 -3.919e+03 5.000e+02
          4.174e+03 -3.998e+03 5.000e+02
          4.174e+03 -4.100e+03 5.000e+02
          4.240e+03 -4.179e+03 5.000e+02
          4.341e+03 -4.197e+03 5.000e+02
          4.430e+03 -4.145e+03 5.000e+02
          4.612e+03 -7.973e+03 5.000e+02
          4.577e+03 -7.877e+03 5.000e+02
          4.488e+03 -7.826e+03 5.000e+02
          4.387e+03 -7.843e+03 5.000e+02
          4.321e+03 -7.922e+03 5.000e+02
          4.321e+03 -8.025e+03 5.000e+02
          4.387e+03 -8.103e+03 5.000e+02
          4.488e+03 -8.121e+03 5.000e+02
          4.577e+03 -8.070e+03 5.000e+02
          4.663e+03 -5.623e+03 5.000e+02
          4.627e+03 -5.526e+03 5.000e+02
          4.539e+03 -5.475e+03 5.000e+02
          4.438e+03 -5.493e+03 5.000e+02
          4.372e+03 -5.572e+03 5.000e+02
          4.372e+03 -5.674e+03 5.000e+02
          4.438e+03 -5.753e+03 5.000e+02
          4.539e+03 -5.771e+03 5.000e+02
          4.627e+03 -5.719e+03 5.000e+02
          4.860e+03 -7.197e+03 5.000e+02
          4.825e+03 -7.100e+03 5.000e+02
          4.736e+03 -7.049e+03 5.000e+02
          4.635e+03 -7.067e+03 5.000e+02
          4.569e+03 -7.145e+03 5.000e+02
          4.569e+03 -7.248e+03 5.000e+02
          4.635e+03 -7.327e+03 5.000e+02
          4.736e+03 -7.344e+03 5.000e+02
          4.825e+03 -7.293e+03 5.000e+02
          4.911e+03 -4.846e+03 5.000e+02
          4.876e+03 -4.750e+03 5.000e+02
          4.787e+03 -4.699e+03 5.000e+02
          4.686e+03 -4.716e+03 5.000e+02
          4.620e+03 -4.795e+03 5.000e+02
          4.620e+03 -4.898e+03 5.000e+02
          4.686e+03 -4.976e+03 5.000e+02
          4.787e+03 -4.994e+03 5.000e+02
          4.876e+03 -4.943e+03 5.000e+02
          5.058e+03 -8.771e+03 5.000e+02
          5.023e+03 -8.674e+03 5.000e+02
          4.934e+03 -8.623e+03 5.000e+02
          4.833e+03 -8.641e+03 5.000e+02
          4.767e+03 -8.719e+03 5.000e+02
          4.767e+03 -8.822e+03 5.000e+02
          4.833e+03 -8.900e+03 5.000e+02
          4.934e+03 -8.918e+03 5.000e+02
          5.023e+03 -8.867e+03 5.000e+02
          5.109e+03 -6.420e+03 5.000e+02
          5.074e+03 -6.324e+03 5.000e+02
          4.985e+03 -6.272e+03 5.000e+02
          4.884e+03 -6.290e+03 5.000e+02
          4.818e+03 -6.369e+03 5.000e+02
          4.818e+03 -6.471e+03 5.000e+02
          4.884e+03 -6.550e+03 5.000e+02
          4.985e+03 -6.568e+03 5.000e+02
          5.074e+03 -6.517e+03 5.000e+02
          5.159e+03 -4.070e+03 5.000e+02
          5.124e+03 -3.973e+03 5.000e+02
          5.035e+03 -3.922e+03 5.000e+02
          4.934e+03 -3.940e+03 5.000e+02
          4.868e+03 -4.019e+03 5.000e+02
          4.868e+03 -4.121e+03 5.000e+02
          4.934e+03 -4.200e+03 5.000e+02
          5.035e+03 -4.218e+03 5.000e+02
          5.124e+03 -4.166e+03 5.000e+02
          5.307e+03 -7.994e+03 5.000e+02
          5.271e+03 -7.898e+03 5.000e+02
          5.183e+03 -7.846e+03 5.000e+02
          5.082e+03 -7.864e+03 5.000e+02
          5.016e+03 -7.943e+03 5.000e+02
[...]
      <CellData Scalars="Wavelength">
        <DataArray type="Float32" Name="Wavelength" format="ascii">
           6.200e+02
           6.200e+02
           6.200e+02
           6.200e+02
           6.200e+02
           6.200e+02
           6.200e+02
           6.200e+02
           6.200e+02
           6.200e+02
           6.200e+02
           6.200e+02
           6.200e+02
           6.200e+02
           6.200e+02
           6.200e+02
           6.200e+02
           6.200e+02
           6.200e+02
           6.200e+02
           6.200e+02
           6.200e+02
           6.200e+02
           6.200e+02
           6.200e+02
           6.200e+02
           6.200e+02
           6.200e+02
           6.200e+02
           6.200e+02
           6.200e+02
           6.200e+02
           6.200e+02
           6.200e+02
           6.200e+02
           6.200e+02
           6.200e+02
           6.200e+02
           6.200e+02
           6.200e+02
           6.200e+02
           6.200e+02
           6.200e+02
           6.200e+02
           6.200e+02
           6.200e+02
           6.200e+02
           6.200e+02
           6.200e+02
           6.200e+02
           6.200e+02
           6.200e+02
           6.200e+02
           6.200e+02
           6.200e+02
           6.200e+02
           6.200e+02
           6.200e+02
           6.200e+02
           6.200e+02
           6.200e+02
           6.200e+02
           6.200e+02
           6.200e+02
           6.200e+02
           6.200e+02
           6.200e+02
           6.200e+02
           6.200e+02
           6.200e+02
           6.200e+02
           6.200e+02
           6.200e+02
           6.200e+02
           6.200e+02
           6.200e+02
           6.200e+02
           6.200e+02
           6.200e+02
           6.200e+02
           6.200e+02
           6.200e+02
           6.200e+02
           6.200e+02
           6.200e+02
           6.200e+02
           6.200e+02
           6.200e+02
           6.200e+02
           6.200e+02
           6.200e+02
           6.200e+02
           6.200e+02
           6.200e+02
           6.200e+02
           6.200e+02
           6.200e+02
           6.200e+02
           6.200e+02
           6.200e+02
           6.200e+02
           6.200e+02
           6.200e+02
           6.200e+02
           6.200e+02
           6.200e+02
           6.200e+02
           6.200e+02
           6.200e+02
           6.200e+02
           6.200e+02
           6.200e+02
           6.200e+02
           6.200e+02
           6.200e+02
           6.200e+02
           6.200e+02
           6.200e+02
           6.200e+02
           6.200e+02
           6.200e+02
           6.200e+02
           6.200e+02
           6.200e+02
           6.200e+02
           6.200e+02
           6.200e+02
           6.200e+02
           6.200e+02
           6.200e+02
           6.200e+02
           6.200e+02
           6.200e+02
           6.200e+02
           6.200e+02
           6.200e+02
           6.200e+02
           6.200e+02
           6.200e+02
           6.200e+02
           6.200e+02
           6.200e+02
           6.200e+02
           6.200e+02
           6.200e+02
           6.200e+02
           6.200e+02
           6.200e+02
           6.200e+02
           6.200e+02
           6.200e+02
           6.200e+02
           6.200e+02
           6.200e+02
           6.200e+02
           6.200e+02
           6.200e+02
           6.200e+02
           6.200e+02
           6.200e+02
           6.200e+02
           6.200e+02
           6.200e+02
           6.200e+02
           6.200e+02
           6.200e+02
           6.200e+02
           6.200e+02
           6.200e+02
           6.200e+02
           6.200e+02
           6.200e+02
           6.200e+02
           6.200e+02
           6.200e+02
           6.200e+02
           6.200e+02
           6.200e+02
           6.200e+02
           6.200e+02
           6.200e+02
           6.200e+02
           6.200e+02
           6.200e+02
           6.200e+02
           6.200e+02
           6.200e+02
           6.200e+02
           6.200e+02
           6.200e+02
           6.200e+02
           6.200e+02
           6.200e+02
           6.200e+02
           6.200e+02
           6.200e+02
           6.200e+02
           6.200e+02
           6.200e+02
           6.200e+02
           6.200e+02
           6.200e+02
           6.200e+02
           6.200e+02
           6.200e+02
           6.200e+02
           6.200e+02
           6.200e+02
           6.200e+02
           6.200e+02
           6.200e+02
           6.200e+02
           6.200e+02
           6.200e+02
           6.200e+02
           6.200e+02
           6.200e+02
           6.200e+02
           6.200e+02
           6.200e+02
           6.200e+02
           6.200e+02
           6.200e+02
           6.200e+02
           6.200e+02
           6.200e+02
           6.200e+02
           6.200e+02
           6.200e+02
           6.200e+02
           6.200e+02
           6.200e+02
           6.200e+02
           6.200e+02
           6.200e+02
           6.200e+02
           6.200e+02
           6.200e+02
           6.200e+02
           6.200e+02
           6.200e+02
           6.200e+02
           6.200e+02
           6.200e+02
           6.200e+02
           6.200e+02
           6.200e+02
           6.200e+02
           6.200e+02
           6.200e+02
           6.200e+02
           6.200e+02
           6.200e+02
           6.200e+02
           6.200e+02
           6.200e+02
           6.200e+02
           6.200e+02
           6.200e+02
           6.200e+02
           6.200e+02
           6.200e+02
           6.200e+02
           6.200e+02
           6.200e+02
           6.200e+02
           6.200e+02
           6.200e+02
           6.200e+02
           6.200e+02
           6.200e+02
           6.200e+02
           6.200e+02
           6.200e+02
           6.200e+02
           6.200e+02
           6.200e+02
           6.200e+02
           6.200e+02
           6.200e+02
           6.200e+02
           6.200e+02
           6.200e+02
           6.200e+02
           6.200e+02
           6.200e+02
           6.200e+02
           6.200e+02
           6.200e+02
           6.200e+02
           6.200e+02
           6.200e+02
           6.200e+02
           6.200e+02
           6.200e+02
           6.200e+02
           6.200e+02
           6.200e+02
           6.200e+02
           6.200e+02
           6.200e+02
           6.200e+02
           6.200e+02
           6.200e+02
           6.200e+02
           6.200e+02
           6.200e+02
           6.200e+02
           6.200e+02
           6.200e+02
           6.200e+02
           6.200e+02
           6.200e+02
           6.200e+02
           6.200e+02
           6.200e+02
           6.200e+02
           6.200e+02
           6.200e+02
           6.200e+02
           6.200e+02
           6.200e+02
           6.200e+02
           6.200e+02
           6.200e+02
           6.200e+02
           6.200e+02
           6.200e+02
           6.200e+02
           6.200e+02
           6.200e+02
           6.200e+02
           6.200e+02
           6.200e+02
           6.200e+02
           6.200e+02
           6.200e+02
           6.200e+02
           6.200e+02
           6.200e+02
           6.200e+02
           6.200e+02
           6.200e+02
           6.200e+02
           6.200e+02
           6.200e+02
           6.200e+02
           6.200e+02
           6.200e+02
           6.200e+02
           6.200e+02
           6.200e+02
           6.200e+02
           6.200e+02
           6.200e+02
           6.200e+02
           6.200e+02
           6.200e+02
           6.200e+02
           6.200e+02
           6.200e+02
           6.200e+02
           6.200e+02
           6.200e+02
           6.200e+02
           6.200e+02
           6.200e+02
           6.200e+02
           6.200e+02
           6.200e+02
           6.200e+02
           6.200e+02
           6.200e+02
           6.200e+02
           6.200e+02
           6.200e+02
           6.200e+02
           6.200e+02
           6.200e+02
           6.200e+02
           6.200e+02
           6.200e+02
           6.200e+02
           6.200e+02
           6.200e+02
           6.200e+02
           6.200e+02
           6.200e+02
           6.200e+02
           6.200e+02
           6.200e+02
           6.200e+02
           6.200e+02
           6.200e+02
           6.200e+02
           6.200e+02
           6.200e+02
           6.200e+02
           6.200e+02
           6.200e+02
           6.200e+02
           6.200e+02
           6.200e+02
           6.200e+02
           6.200e+02
           6.200e+02
           6.200e+02
           6.200e+02
           6.200e+02
           6.200e+02
           6.200e+02
           6.200e+02
           6.200e+02
           6.200e+02
           6.200e+02
           6.200e+02
           6.200e+02
           6.200e+02
           6.200e+02
           6.200e+02
           6.200e+02
           6.200e+02
           6.200e+02
           6.200e+02
           6.200e+02
           6.200e+02
           6.200e+02
           6.200e+02
           6.200e+02
           6.200e+02
           6.200e+02
           6.200e+02
           6.200e+02
           6.200e+02
           6.200e+02
           6.200e+02
           6.200e+02
           6.200e+02
           6.200e+02
           6.200e+02
           6.200e+02
           6.200e+02
           6.200e+02
           6.200e+02
           6.200e+02
           6.200e+02
           6.200e+02
           6.200e+02
           6.200e+02
           6.200e+02
           6.200e+02
           6.200e+02
           6.200e+02
           6.200e+02
           6.200e+02
           6.200e+02
           6.200e+02
           6.200e+02
           6.200e+02
           6.200e+02
           6.200e+02
           6.200e+02
           6.200e+02
           6.200e+02
           6.200e+02
           6.200e+02
           6.200e+02
           6.200e+02
           6.200e+02
           6.200e+02
           6.200e+02
           6.200e+02
           6.200e+02
           6.200e+02
           6.200e+02
           6.200e+02
           6.200e+02
           6.200e+02
           6.200e+02
           6.200e+02
           6.200e+02
           6.200e+02
           6.200e+02
           6.200e+02
           6.200e+02
           6.200e+02
           6.200e+02
           6.200e+02
           6.200e+02
           6.200e+02
           6.200e+02
           6.200e+02
           6.200e+02
           6.200e+02
           6.200e+02
           6.200e+02
           6.200e+02
           6.200e+02
           6.200e+02
           6.200e+02
           6.200e+02
           6.200e+02
           6.200e+02
           6.200e+02
           6.200e+02
           6.200e+02
           6.200e+02
           6.200e+02
           6.200e+02
           6.200e+02
           6.200e+02
           6.200e+02
           6.200e+02
           6.200e+02
           6.200e+02
           6.200e+02
           6.200e+02
           6.200e+02
           6.200e+02
           6.200e+02
           6.200e+02
           6.200e+02
           6.200e+02
           6.200e+02
           6.200e+02
           6.200e+02
           6.200e+02
           6.200e+02
           6.200e+02
           6.200e+02
           6.200e+02
           6.200e+02
           6.200e+02
           6.200e+02
           6.200e+02
           6.200e+02
           6.200e+02
           6.200e+02
           6.200e+02
           6.200e+02
           6.200e+02
           6.200e+02
           6.200e+02
           6.200e+02
           6.200e+02
           6.200e+02
           6.200e+02
           6.200e+02
           6.200e+02
           6.200e+02
           6.200e+02
           6.200e+02
           6.200e+02
           6.200e+02
           6.200e+02
           6.200e+02
           6.200e+02
           6.200e+02
           6.200e+02
           6.200e+02
           6.200e+02
           6.200e+02
           6.200e+02
           6.200e+02
           6.200e+02
           6.200e+02
           6.200e+02
           6.200e+02
           6.200e+02
           6.200e+02
           6.200e+02
           6.200e+02
           6.200e+02
           6.200e+02
           6.200e+02
           6.200e+02
           6.200e+02
           6.200e+02
           6.200e+02
           6.200e+02
           6.200e+02
           6.200e+02
           6.200e+02
           6.200e+02
           6.200e+02
           6.200e+02
           6.200e+02
           6.200e+02
           6.200e+02
           6.200e+02
           6.200e+02
           6.200e+02
           6.200e+02
           6.200e+02
           6.200e+02
           6.200e+02
           6.200e+02
           6.200e+02
           6.200e+02
           6.200e+02
           6.200e+02
           6.200e+02
           6.200e+02
           6.200e+02
           6.200e+02
           6.200e+02
           6.200e+02
           6.200e+02
           6.200e+02
           6.200e+02
           6.200e+02
           6.200e+02
           6.200e+02
           6.200e+02
           6.200e+02
           6.200e+02
           6.200e+02
           6.200e+02
           6.200e+02
           6.200e+02
           6.200e+02
           6.200e+02
           6.200e+02
           6.200e+02
           6.200e+02
           6.200e+02
           6.200e+02
           6.200e+02
           6.200e+02
           6.200e+02
           6.200e+02
           6.200e+02
           6.200e+02
           6.200e+02
           6.200e+02
           6.200e+02
           6.200e+02
           6.200e+02
           6.200e+02
           6.200e+02
           6.200e+02
           6.200e+02
           6.200e+02
           6.200e+02
           6.200e+02
           6.200e+02
           6.200e+02
           6.200e+02
           6.200e+02
           6.200e+02
           6.200e+02
           6.200e+02
           6.200e+02
           6.200e+02
           6.200e+02
           6.200e+02
           6.200e+02
           6.200e+02
           6.200e+02
           6.200e+02
           6.200e+02
           6.200e+02
           6.200e+02
           6.200e+02
           6.200e+02
           6.200e+02
           6.200e+02
           6.200e+02
           6.200e+02
           6.200e+02
           6.200e+02
           6.200e+02
           6.200e+02
           6.200e+02
           6.200e+02
           6.200e+02
           6.200e+02
           6.200e+02
           6.200e+02
           6.200e+02
           6.200e+02
           6.200e+02
           6.200e+02
           6.200e+02
           6.200e+02
           6.200e+02
           6.200e+02
           6.200e+02
           6.200e+02
           6.200e+02
           6.200e+02
           6.200e+02
           6.200e+02
           6.200e+02
           6.200e+02
           6.200e+02
           6.200e+02
           6.200e+02
           6.200e+02
           6.200e+02
           6.200e+02
           6.200e+02
           6.200e+02
           6.200e+02
           6.200e+02
           6.200e+02
           6.200e+02
           6.200e+02
           6.200e+02
           6.200e+02
           6.200e+02
           6.200e+02
           6.200e+02
           6.200e+02
           6.200e+02
           6.200e+02
           6.200e+02
           6.200e+02
           6.200e+02
           6.200e+02
           6.200e+02
           6.200e+02
           6.200e+02
           6.200e+02
           6.200e+02
           6.200e+02
           6.200e+02
           6.200e+02
           6.200e+02
           6.200e+02
           6.200e+02
           6.200e+02
           6.200e+02
           6.200e+02
           6.200e+02
           6.200e+02
           6.200e+02
           6.200e+02
           6.200e+02
           6.200e+02
           6.200e+02
           6.200e+02
           6.200e+02
           6.200e+02
           6.200e+02
           6.200e+02
           6.200e+02
           6.200e+02
           6.200e+02
           6.200e+02
           6.200e+02
           6.200e+02
           6.200e+02
           6.200e+02
           6.200e+02
           6.200e+02
           6.200e+02
           6.200e+02
           6.200e+02
           6.200e+02
           6.200e+02
           6.200e+02
           6.200e+02
           6.200e+02
           6.200e+02
           6.200e+02
           6.200e+02
           6.200e+02
           6.200e+02
           6.200e+02
           6.200e+02
           6.200e+02
           6.200e+02
           6.200e+02
           6.200e+02
           6.200e+02
           6.200e+02
           6.200e+02
           6.200e+02
           6.200e+02
           6.200e+02
           6.200e+02
           6.200e+02
           6.200e+02
           6.200e+02
           6.200e+02
           6.200e+02
           6.200e+02
           6.200e+02
           6.200e+02
           6.200e+02
           6.200e+02
           6.200e+02
           6.200e+02
           6.200e+02
           6.200e+02
           6.200e+02
           6.200e+02
           6.200e+02
           6.200e+02
           6.200e+02
           6.200e+02
           6.200e+02
           6.200e+02
           6.200e+02
           6.200e+02
           6.200e+02
           6.200e+02
           6.200e+02
           6.200e+02
           6.200e+02
           6.200e+02
           6.200e+02
           6.200e+02
           6.200e+02
           6.200e+02
           6.200e+02
           6.200e+02
           6.200e+02
           6.200e+02
           6.200e+02
           6.200e+02
           6.200e+02
           6.200e+02
           6.200e+02
           6.200e+02
           6.200e+02
           6.200e+02
           6.200e+02
           6.200e+02
           6.200e+02
           6.200e+02
           6.200e+02
           6.200e+02
           6.200e+02
           6.200e+02
           6.200e+02
           6.200e+02
           6.200e+02
           6.200e+02
           6.200e+02
           6.200e+02
           6.200e+02
           6.200e+02
           6.200e+02
           6.200e+02
           6.200e+02
           6.200e+02
           6.200e+02
           6.200e+02
           6.200e+02
           6.200e+02
           6.200e+02
           6.200e+02
           6.200e+02
           6.200e+02
           6.200e+02
           6.200e+02
           6.200e+02
           6.200e+02
           6.200e+02
           6.200e+02
           6.200e+02
           6.200e+02
           6.200e+02
           6.200e+02
           6.200e+02
           6.200e+02
           6.200e+02
           6.200e+02
           6.200e+02
           6.200e+02
           6.200e+02
           6.200e+02
           6.200e+02
           6.200e+02
           6.200e+02
           6.200e+02
           6.200e+02
           6.200e+02
           6.200e+02
           6.200e+02
           6.200e+02
           6.200e+02
           6.200e+02
           6.200e+02
           6.200e+02
           6.200e+02
           6.200e+02
           6.200e+02
           6.200e+02
           6.200e+02
           6.200e+02
           6.200e+02
           6.200e+02
           6.200e+02
           6.200e+02
           6.200e+02
           6.200e+02
           6.200e+02
           6.200e+02
           6.200e+02
           6.200e+02
           6.200e+02