<?xml version="1.0"?>
<VTKFile type="UnstructuredGrid" version="0.1" byte_order="LittleEndian" compressor="vtkZLibDataCompressor">
  <UnstructuredGrid>
    <Piece NumberOfPoints="32" NumberOfCells="24">
      <Points>
        <DataArray type="Float32" NumberOfComponents="3" format="ascii">
          -1.772e+03 -1.907e+04 0.000e+00
          3.663e+04 -1.907e+04 0.000e+00
          3.663e+04 1.462e+03 0.000e+00
          -1.772e+03 1.462e+03 0.000e+00
          -1.772e+03 -1.907e+04 5.000e+02
          3.663e+04 -1.907e+04 5.000e+02
          3.663e+04 1.462e+03 5.000e+02
          -1.772e+03 1.462e+03 5.000e+02
          -1.272e+03 -9.624e+02 3.750e+02
          -1.272e+03 9.624e+02 3.750e+02
          1.272e+03 9.624e+02 3.750e+02
          1.272e+03 -9.624e+02 3.750e+02
          -1.272e+03 -9.624e+02 5.000e+02
          -1.272e+03 9.624e+02 5.000e+02
          1.272e+03 9.624e+02 5.000e+02
          1.272e+03 -9.624e+02 5.000e+02
          2.000e+03 -1.545e+04 3.750e+02
          2.000e+03 -2.375e+03 3.750e+02
          1.500e+04 -2.375e+03 3.750e+02
          1.500e+04 -1.545e+04 3.750e+02
          2.000e+03 -1.545e+04 5.000e+02
          2.000e+03 -2.375e+03 5.000e+02
          1.500e+04 -2.375e+03 5.000e+02
          1.500e+04 -1.545e+04 5.000e+02
          1.878e+04 -1.545e+04 3.750e+02
          1.857e+04 -2.375e+03 3.750e+02
          3.613e+04 -2.375e+03 3.750e+02
          3.607e+04 -1.545e+04 3.750e+02
          1.878e+04 -1.545e+04 5.000e+02
          1.857e+04 -2.375e+03 5.000e+02
          3.613e+04 -2.375e+03 5.000e+02
          3.607e+04 -1.545e+04 5.000e+02
        </DataArray>
      </Points>
      <Cells>
        <DataArray type="Int32" Name="connectivity" format="ascii">
           4 0 3 1
           7 4 3 1
           7 5 4 1
           7 2 5 1
           7 3 2 1
           7 6 5 2
           12 8 9 11
           13 12 9 11
           13 15 12 11
           13 10 15 11
           13 9 10 11
           13 14 15 10
           20 16 17 19
           21 20 17 19
           21 23 20 19
           21 18 23 19
           21 17 18 19
           21 22 23 18
           28 29 30 26
           28 30 31 26
           25 29 24 26
           28 24 29 26
           28 24 26 27
           28 26 31 27
        </DataArray>
        <DataArray type="Int32" Name="offsets" format="ascii">
           4
           8
           12
           16
           20
           24
           28
           32
           36
           40
           44
           48
           52
           56
           60
           64
           68
           72
           76
           80
           84
           88
           92
           96
        </DataArray>
        <DataArray type="UInt8" Name="types" format="ascii">
           10
           10
           10
           10
           10
           10
           10
           10
           10
           10
           10
           10
           10
           10
           10
           10
           10
           10
           10
           10
           10
           10
           10
           10
        </DataArray>
      </Cells>
      <CellData Scalars="Regions">
        <DataArray type="Float32" Name="Regions" format="ascii">
           1.000e+02
           1.000e+02
           1.000e+02
           1.000e+02
           1.000e+02
           1.000e+02
           5.800e+02
           5.800e+02
           5.800e+02
           5.800e+02
           5.800e+02
           5.800e+02
           5.800e+02
           5.800e+02
           5.800e+02
           5.800e+02
           5.800e+02
           5.800e+02
           5.800e+02
           5.800e+02
           5.800e+02
           5.800e+02
           5.800e+02
           5.800e+02
        </DataArray>
      </CellData>
    </Piece>
  </UnstructuredGrid>
</VTKFile>
