<?xml version="1.0"?>
<VTKFile type="UnstructuredGrid" version="0.1" byte_order="LittleEndian" compressor="vtkZLibDataCompressor">
  <UnstructuredGrid>
    <Piece NumberOfPoints="15669" NumberOfCells="12187">
      <Points>
        <DataArray type="Float32" NumberOfComponents="3" format="ascii">
          -4.497e+02 8.796e+02 5.000e+02
          -4.847e+02 9.760e+02 5.000e+02
          -5.736e+02 1.027e+03 5.000e+02
          -6.747e+02 1.010e+03 5.000e+02
          -7.406e+02 9.309e+02 5.000e+02
          -7.406e+02 8.283e+02 5.000e+02
          -6.747e+02 7.497e+02 5.000e+02
          -5.736e+02 7.319e+02 5.000e+02
          -4.847e+02 7.832e+02 5.000e+02
          -1.498e+02 4.398e+02 5.000e+02
          -1.849e+02 5.362e+02 5.000e+02
          -2.738e+02 5.875e+02 5.000e+02
          -3.748e+02 5.697e+02 5.000e+02
          -4.408e+02 4.911e+02 5.000e+02
          -4.408e+02 3.885e+02 5.000e+02
          -3.748e+02 3.099e+02 5.000e+02
          -2.738e+02 2.921e+02 5.000e+02
          -1.849e+02 3.434e+02 5.000e+02
          1.500e+02 0.000e+00 5.000e+02
          1.149e+02 9.642e+01 5.000e+02
          2.605e+01 1.477e+02 5.000e+02
          -7.500e+01 1.299e+02 5.000e+02
          -1.410e+02 5.130e+01 5.000e+02
          -1.410e+02 -5.130e+01 5.000e+02
          -7.500e+01 -1.299e+02 5.000e+02
          2.605e+01 -1.477e+02 5.000e+02
          1.149e+02 -9.642e+01 5.000e+02
          4.047e+02 -4.635e+02 5.000e+02
          3.696e+02 -3.671e+02 5.000e+02
          2.808e+02 -3.158e+02 5.000e+02
          1.797e+02 -3.336e+02 5.000e+02
          1.138e+02 -4.122e+02 5.000e+02
          1.138e+02 -5.148e+02 5.000e+02
          1.797e+02 -5.934e+02 5.000e+02
          2.808e+02 -6.113e+02 5.000e+02
          3.696e+02 -5.600e+02 5.000e+02
          6.594e+02 -9.271e+02 5.000e+02
          6.243e+02 -8.307e+02 5.000e+02
          5.355e+02 -7.794e+02 5.000e+02
          4.344e+02 -7.972e+02 5.000e+02
          3.685e+02 -8.758e+02 5.000e+02
          3.685e+02 -9.784e+02 5.000e+02
          4.344e+02 -1.057e+03 5.000e+02
          5.355e+02 -1.075e+03 5.000e+02
          6.243e+02 -1.024e+03 5.000e+02
          9.142e+02 -1.391e+03 5.000e+02
          8.791e+02 -1.294e+03 5.000e+02
          7.902e+02 -1.243e+03 5.000e+02
          6.892e+02 -1.261e+03 5.000e+02
          6.232e+02 -1.339e+03 5.000e+02
          6.232e+02 -1.442e+03 5.000e+02
          6.892e+02 -1.521e+03 5.000e+02
          7.902e+02 -1.538e+03 5.000e+02
          8.791e+02 -1.487e+03 5.000e+02
          1.169e+03 -1.854e+03 5.000e+02
          1.134e+03 -1.758e+03 5.000e+02
          1.045e+03 -1.706e+03 5.000e+02
          9.439e+02 -1.724e+03 5.000e+02
          8.779e+02 -1.803e+03 5.000e+02
          8.779e+02 -1.905e+03 5.000e+02
          9.439e+02 -1.984e+03 5.000e+02
          1.045e+03 -2.002e+03 5.000e+02
          1.134e+03 -1.951e+03 5.000e+02
          1.424e+03 -2.318e+03 5.000e+02
          1.388e+03 -2.221e+03 5.000e+02
          1.300e+03 -2.170e+03 5.000e+02
          1.199e+03 -2.188e+03 5.000e+02
          1.133e+03 -2.266e+03 5.000e+02
          1.133e+03 -2.369e+03 5.000e+02
          1.199e+03 -2.448e+03 5.000e+02
          1.300e+03 -2.465e+03 5.000e+02
          1.388e+03 -2.414e+03 5.000e+02
          1.678e+03 -2.781e+03 5.000e+02
          1.643e+03 -2.685e+03 5.000e+02
          1.554e+03 -2.634e+03 5.000e+02
          1.453e+03 -2.651e+03 5.000e+02
          1.387e+03 -2.730e+03 5.000e+02
          1.387e+03 -2.833e+03 5.000e+02
          1.453e+03 -2.911e+03 5.000e+02
          1.554e+03 -2.929e+03 5.000e+02
          1.643e+03 -2.878e+03 5.000e+02
          1.933e+03 -3.245e+03 5.000e+02
          1.898e+03 -3.148e+03 5.000e+02
          1.809e+03 -3.097e+03 5.000e+02
          1.708e+03 -3.115e+03 5.000e+02
          1.642e+03 -3.194e+03 5.000e+02
          1.642e+03 -3.296e+03 5.000e+02
          1.708e+03 -3.375e+03 5.000e+02
          1.809e+03 -3.393e+03 5.000e+02
          1.898e+03 -3.341e+03 5.000e+02
          2.188e+03 -3.708e+03 5.000e+02
          2.153e+03 -3.612e+03 5.000e+02
          2.064e+03 -3.561e+03 5.000e+02
          1.963e+03 -3.578e+03 5.000e+02
          1.897e+03 -3.657e+03 5.000e+02
          1.897e+03 -3.760e+03 5.000e+02
          1.963e+03 -3.838e+03 5.000e+02
          2.064e+03 -3.856e+03 5.000e+02
          2.153e+03 -3.805e+03 5.000e+02
          2.442e+03 -4.172e+03 5.000e+02
          2.407e+03 -4.075e+03 5.000e+02
          2.318e+03 -4.024e+03 5.000e+02
          2.217e+03 -4.042e+03 5.000e+02
          2.151e+03 -4.121e+03 5.000e+02
          2.151e+03 -4.223e+03 5.000e+02
          2.217e+03 -4.302e+03 5.000e+02
          2.318e+03 -4.320e+03 5.000e+02
          2.407e+03 -4.268e+03 5.000e+02
          2.636e+03 -3.724e+03 5.000e+02
          2.601e+03 -3.627e+03 5.000e+02
          2.512e+03 -3.576e+03 5.000e+02
          2.411e+03 -3.594e+03 5.000e+02
          2.345e+03 -3.672e+03 5.000e+02
          2.345e+03 -3.775e+03 5.000e+02
          2.411e+03 -3.854e+03 5.000e+02
          2.512e+03 -3.871e+03 5.000e+02
          2.601e+03 -3.820e+03 5.000e+02
          2.697e+03 -4.635e+03 5.000e+02
          2.662e+03 -4.539e+03 5.000e+02
          2.573e+03 -4.488e+03 5.000e+02
          2.472e+03 -4.506e+03 5.000e+02
          2.406e+03 -4.584e+03 5.000e+02
          2.406e+03 -4.687e+03 5.000e+02
          2.472e+03 -4.765e+03 5.000e+02
          2.573e+03 -4.783e+03 5.000e+02
          2.662e+03 -4.732e+03 5.000e+02
          2.890e+03 -4.187e+03 5.000e+02
          2.855e+03 -4.091e+03 5.000e+02
          2.767e+03 -4.040e+03 5.000e+02
          2.665e+03 -4.057e+03 5.000e+02
          2.600e+03 -4.136e+03 5.000e+02
          2.600e+03 -4.239e+03 5.000e+02
          2.665e+03 -4.317e+03 5.000e+02
          2.767e+03 -4.335e+03 5.000e+02
          2.855e+03 -4.284e+03 5.000e+02
          2.952e+03 -5.099e+03 5.000e+02
          2.917e+03 -5.003e+03 5.000e+02
          2.828e+03 -4.951e+03 5.000e+02
          2.727e+03 -4.969e+03 5.000e+02
          2.661e+03 -5.048e+03 5.000e+02
          2.661e+03 -5.150e+03 5.000e+02
          2.727e+03 -5.229e+03 5.000e+02
          2.828e+03 -5.247e+03 5.000e+02
          2.917e+03 -5.195e+03 5.000e+02
          3.084e+03 -3.739e+03 5.000e+02
          3.049e+03 -3.643e+03 5.000e+02
          2.960e+03 -3.591e+03 5.000e+02
          2.859e+03 -3.609e+03 5.000e+02
          2.793e+03 -3.688e+03 5.000e+02
          2.793e+03 -3.790e+03 5.000e+02
          2.859e+03 -3.869e+03 5.000e+02
          2.960e+03 -3.887e+03 5.000e+02
          3.049e+03 -3.836e+03 5.000e+02
          3.145e+03 -4.651e+03 5.000e+02
          3.110e+03 -4.554e+03 5.000e+02
          3.021e+03 -4.503e+03 5.000e+02
          2.920e+03 -4.521e+03 5.000e+02
          2.854e+03 -4.600e+03 5.000e+02
          2.854e+03 -4.702e+03 5.000e+02
          2.920e+03 -4.781e+03 5.000e+02
          3.021e+03 -4.799e+03 5.000e+02
          3.110e+03 -4.747e+03 5.000e+02
          3.207e+03 -5.563e+03 5.000e+02
          3.172e+03 -5.466e+03 5.000e+02
          3.083e+03 -5.415e+03 5.000e+02
          2.982e+03 -5.433e+03 5.000e+02
          2.916e+03 -5.511e+03 5.000e+02
          2.916e+03 -5.614e+03 5.000e+02
          2.982e+03 -5.692e+03 5.000e+02
          3.083e+03 -5.710e+03 5.000e+02
          3.172e+03 -5.659e+03 5.000e+02
          3.338e+03 -4.203e+03 5.000e+02
          3.303e+03 -4.106e+03 5.000e+02
          3.215e+03 -4.055e+03 5.000e+02
          3.113e+03 -4.073e+03 5.000e+02
          3.048e+03 -4.151e+03 5.000e+02
          3.048e+03 -4.254e+03 5.000e+02
          3.113e+03 -4.333e+03 5.000e+02
          3.215e+03 -4.350e+03 5.000e+02
          3.303e+03 -4.299e+03 5.000e+02
          3.400e+03 -5.114e+03 5.000e+02
          3.365e+03 -5.018e+03 5.000e+02
          3.276e+03 -4.967e+03 5.000e+02
          3.175e+03 -4.984e+03 5.000e+02
          3.109e+03 -5.063e+03 5.000e+02
          3.109e+03 -5.166e+03 5.000e+02
          3.175e+03 -5.244e+03 5.000e+02
          3.276e+03 -5.262e+03 5.000e+02
          3.365e+03 -5.211e+03 5.000e+02
          3.461e+03 -6.026e+03 5.000e+02
          3.426e+03 -5.930e+03 5.000e+02
          3.337e+03 -5.878e+03 5.000e+02
          3.236e+03 -5.896e+03 5.000e+02
          3.170e+03 -5.975e+03 5.000e+02
          3.170e+03 -6.077e+03 5.000e+02
          3.236e+03 -6.156e+03 5.000e+02
          3.337e+03 -6.174e+03 5.000e+02
          3.426e+03 -6.122e+03 5.000e+02
          3.532e+03 -3.755e+03 5.000e+02
          3.497e+03 -3.658e+03 5.000e+02
          3.408e+03 -3.607e+03 5.000e+02
          3.307e+03 -3.625e+03 5.000e+02
          3.241e+03 -3.703e+03 5.000e+02
          3.241e+03 -3.806e+03 5.000e+02
          3.307e+03 -3.884e+03 5.000e+02
          3.408e+03 -3.902e+03 5.000e+02
          3.497e+03 -3.851e+03 5.000e+02
          3.593e+03 -4.666e+03 5.000e+02
          3.558e+03 -4.570e+03 5.000e+02
          3.469e+03 -4.519e+03 5.000e+02
          3.368e+03 -4.536e+03 5.000e+02
          3.302e+03 -4.615e+03 5.000e+02
          3.302e+03 -4.718e+03 5.000e+02
          3.368e+03 -4.796e+03 5.000e+02
          3.469e+03 -4.814e+03 5.000e+02
          3.558e+03 -4.763e+03 5.000e+02
          3.655e+03 -5.578e+03 5.000e+02
          3.620e+03 -5.482e+03 5.000e+02
          3.531e+03 -5.430e+03 5.000e+02
          3.430e+03 -5.448e+03 5.000e+02
          3.364e+03 -5.527e+03 5.000e+02
          3.364e+03 -5.629e+03 5.000e+02
          3.430e+03 -5.708e+03 5.000e+02
          3.531e+03 -5.726e+03 5.000e+02
          3.620e+03 -5.674e+03 5.000e+02
          3.716e+03 -6.490e+03 5.000e+02
          3.681e+03 -6.393e+03 5.000e+02
          3.592e+03 -6.342e+03 5.000e+02
          3.491e+03 -6.360e+03 5.000e+02
          3.425e+03 -6.438e+03 5.000e+02
[...]
      <CellData Scalars="Wavelength">
        <DataArray type="Float32" Name="Real_RI" format="ascii">
           5.200e+02
           5.200e+02
           5.200e+02
           5.200e+02
           5.200e+02
           5.200e+02
           5.200e+02
           5.200e+02
           5.200e+02
           5.200e+02
           5.200e+02
           5.200e+02
           5.200e+02
           5.200e+02
           5.200e+02
           5.200e+02
           5.200e+02
           5.200e+02
           5.200e+02
           5.200e+02
           5.200e+02
           5.200e+02
           5.200e+02
           5.200e+02
           5.200e+02
           5.200e+02
           5.200e+02
           5.200e+02
           5.200e+02
           5.200e+02
           5.200e+02
           5.200e+02
           5.200e+02
           5.200e+02
           5.200e+02
           5.200e+02
           5.200e+02
           5.200e+02
           5.200e+02
           5.200e+02
           5.200e+02
           5.200e+02
           5.200e+02
           5.200e+02
           5.200e+02
           5.200e+02
           5.200e+02
           5.200e+02
           5.200e+02
           5.200e+02
           5.200e+02
           5.200e+02
           5.200e+02
           5.200e+02
           5.200e+02
           5.200e+02
           5.200e+02
           5.200e+02
           5.200e+02
           5.200e+02
           5.200e+02
           5.200e+02
           5.200e+02
           5.200e+02
           5.200e+02
           5.200e+02
           5.200e+02
           5.200e+02
           5.200e+02
           5.200e+02
           5.200e+02
           5.200e+02
           5.200e+02
           5.200e+02
           5.200e+02
           5.200e+02
           5.200e+02
           5.200e+02
           5.200e+02
           5.200e+02
           5.200e+02
           5.200e+02
           5.200e+02
           5.200e+02
           5.200e+02
           5.200e+02
           5.200e+02
           5.200e+02
           5.200e+02
           5.200e+02
           5.200e+02
           5.200e+02
           5.200e+02
           5.200e+02
           5.200e+02
           5.200e+02
           5.200e+02
           5.200e+02
           5.200e+02
           5.200e+02
           5.200e+02
           5.200e+02
           5.200e+02
           5.200e+02
           5.200e+02
           5.200e+02
           5.200e+02
           5.200e+02
           5.200e+02
           5.200e+02
           5.200e+02
           5.200e+02
           5.200e+02
           5.200e+02
           5.200e+02
           5.200e+02
           5.200e+02
           5.200e+02
           5.200e+02
           5.200e+02
           5.200e+02
           5.200e+02
           5.200e+02
           5.200e+02
           5.200e+02
           5.200e+02
           5.200e+02
           5.200e+02
           5.200e+02
           5.200e+02
           5.200e+02
           5.200e+02
           5.200e+02
           5.200e+02
           5.200e+02
           5.200e+02
           5.200e+02
           5.200e+02
           5.200e+02
           5.200e+02
           5.200e+02
           5.200e+02
           5.200e+02
           5.200e+02
           5.200e+02
           5.200e+02
           5.200e+02
           5.200e+02
           5.200e+02
           5.200e+02
           5.200e+02
           5.200e+02
           5.200e+02
           5.200e+02
           5.200e+02
           5.200e+02
           5.200e+02
           5.200e+02
           5.200e+02
           5.200e+02
           5.200e+02
           5.200e+02
           5.200e+02
           5.200e+02
           5.200e+02
           5.200e+02
           5.200e+02
           5.200e+02
           5.200e+02
           5.200e+02
           5.200e+02
           5.200e+02
           5.200e+02
           5.200e+02
           5.200e+02
           5.200e+02
           5.200e+02
           5.200e+02
           5.200e+02
           5.200e+02
           5.200e+02
           5.200e+02
           5.200e+02
           5.200e+02
           5.200e+02
           5.200e+02
           5.200e+02
           5.200e+02
           5.200e+02
           5.200e+02
           5.200e+02
           5.200e+02
           5.200e+02
           5.200e+02
           5.200e+02
           5.200e+02
           5.200e+02
           5.200e+02
           5.200e+02
           5.200e+02
           5.200e+02
           5.200e+02
           5.200e+02
           5.200e+02
           5.200e+02
           5.200e+02
           5.200e+02
           5.200e+02
           5.200e+02
           5.200e+02
           5.200e+02
           5.200e+02
           5.200e+02
           5.200e+02
           5.200e+02
           5.200e+02
           5.200e+02
           5.200e+02
           5.200e+02
           5.200e+02
           5.200e+02
           5.200e+02
           5.200e+02
           5.200e+02
           5.200e+02
           5.200e+02
           5.200e+02
           5.200e+02
           5.200e+02
           5.200e+02
           5.200e+02
           5.200e+02
           5.200e+02
           5.200e+02
           5.200e+02
           5.200e+02
           5.200e+02
           5.200e+02
           5.200e+02
           5.200e+02
           5.200e+02
           5.200e+02
           5.200e+02
           5.200e+02
           5.200e+02
           5.200e+02
           5.200e+02
           5.200e+02
           5.200e+02
           5.200e+02
           5.200e+02
           5.200e+02
           5.200e+02
           5.200e+02
           5.200e+02
           5.200e+02
           5.200e+02
           5.200e+02
           5.200e+02
           5.200e+02
           5.200e+02
           5.200e+02
           5.200e+02
           5.200e+02
           5.200e+02
           5.200e+02
           5.200e+02
           5.200e+02
           5.200e+02
           5.200e+02
           5.200e+02
           5.200e+02
           5.200e+02
           5.200e+02
           5.200e+02
           5.200e+02
           5.200e+02
           5.200e+02
           5.200e+02
           5.200e+02
           5.200e+02
           5.200e+02
           5.200e+02
           5.200e+02
           5.200e+02
           5.200e+02
           5.200e+02
           5.200e+02
           5.200e+02
           5.200e+02
           5.200e+02
           5.200e+02
           5.200e+02
           5.200e+02
           5.200e+02
           5.200e+02
           5.200e+02
           5.200e+02
           5.200e+02
           5.200e+02
           5.200e+02
           5.200e+02
           5.200e+02
           5.200e+02
           5.200e+02
           5.200e+02
           5.200e+02
           5.200e+02
           5.200e+02
           5.200e+02
           5.200e+02
           5.200e+02
           5.200e+02
           5.200e+02
           5.200e+02
           5.200e+02
           5.200e+02
           5.200e+02
           5.200e+02
           5.200e+02
           5.200e+02
           5.200e+02
           5.200e+02
           5.200e+02
           5.200e+02
           5.200e+02
           5.200e+02
           5.200e+02
           5.200e+02
           5.200e+02
           5.200e+02
           5.200e+02
           5.200e+02
           5.200e+02
           5.200e+02
           5.200e+02
           5.200e+02
           5.200e+02
           5.200e+02
           5.200e+02
           5.200e+02
           5.200e+02
           5.200e+02
           5.200e+02
           5.200e+02
           5.200e+02
           5.200e+02
           5.200e+02
           5.200e+02
           5.200e+02
           5.200e+02
           5.200e+02
           5.200e+02
           5.200e+02
           5.200e+02
           5.200e+02
           5.200e+02
           5.200e+02
           5.200e+02
           5.200e+02
           5.200e+02
           5.200e+02
           5.200e+02
           5.200e+02
           5.200e+02
           5.200e+02
           5.200e+02
           5.200e+02
           5.200e+02
           5.200e+02
           5.200e+02
           5.200e+02
           5.200e+02
           5.200e+02
           5.200e+02
           5.200e+02
           5.200e+02
           5.200e+02
           5.200e+02
           5.200e+02
           5.200e+02
           5.200e+02
           5.200e+02
           5.200e+02
           5.200e+02
           5.200e+02
           5.200e+02
           5.200e+02
           5.200e+02
           5.200e+02
           5.200e+02
           5.200e+02
           5.200e+02
           5.200e+02
           5.200e+02
           5.200e+02
           5.200e+02
           5.200e+02
           5.200e+02
           5.200e+02
           5.200e+02
           5.200e+02
           5.200e+02
           5.200e+02
           5.200e+02
           5.200e+02
           5.200e+02
           5.200e+02
           5.200e+02
           5.200e+02
           5.200e+02
           5.200e+02
           5.200e+02
           5.200e+02
           5.200e+02
           5.200e+02
           5.200e+02
           5.200e+02
           5.200e+02
           5.200e+02
           5.200e+02
           5.200e+02
           5.200e+02
           5.200e+02
           5.200e+02
           5.200e+02
           5.200e+02
           5.200e+02
           5.200e+02
           5.200e+02
           5.200e+02
           5.200e+02
           5.200e+02
           5.200e+02
           5.200e+02
           5.200e+02
           5.200e+02
           5.200e+02
           5.200e+02
           5.200e+02
           5.200e+02
           5.200e+02
           5.200e+02
           5.200e+02
           5.200e+02
           5.200e+02
           5.200e+02
           5.200e+02
           5.200e+02
           5.200e+02
           5.200e+02
           5.200e+02
           5.200e+02
           5.200e+02
           5.200e+02
           5.200e+02
           5.200e+02
           5.200e+02
           5.200e+02
           5.200e+02
           5.200e+02
           5.200e+02
           5.200e+02
           5.200e+02
           5.200e+02
           5.200e+02
           5.200e+02
           5.200e+02
           5.200e+02
           5.200e+02
           5.200e+02
           5.200e+02
           5.200e+02
           5.200e+02
           5.200e+02
           5.200e+02
           5.200e+02
           5.200e+02
           5.200e+02
           5.200e+02
           5.200e+02
           5.200e+02
           5.200e+02
           5.200e+02
           5.200e+02
           5.200e+02
           5.200e+02
           5.200e+02
           5.200e+02
           5.200e+02
           5.200e+02
           5.200e+02
           5.200e+02
           5.200e+02
           5.200e+02
           5.200e+02
           5.200e+02
           5.200e+02
           5.200e+02
           5.200e+02
           5.200e+02
           5.200e+02
           5.200e+02
           5.200e+02
           5.200e+02
           5.200e+02
           5.200e+02
           5.200e+02
           5.200e+02
           5.200e+02
           5.200e+02
           5.200e+02
           5.200e+02
           5.200e+02
           5.200e+02
           5.200e+02
           5.200e+02
           5.200e+02
           5.200e+02
           5.200e+02
           5.200e+02
           5.200e+02
           5.200e+02
           5.200e+02
           5.200e+02
           5.200e+02
           5.200e+02
           5.200e+02
           5.200e+02
           5.200e+02
           5.200e+02
           5.200e+02
           5.200e+02
           5.200e+02
           5.200e+02
           5.200e+02
           5.200e+02
           5.200e+02
           5.200e+02
           5.200e+02
           5.200e+02
           5.200e+02
           5.200e+02
           5.200e+02
           5.200e+02
           5.200e+02
           5.200e+02
           5.200e+02
           5.200e+02
           5.200e+02
           5.200e+02
           5.200e+02
           5.200e+02
           5.200e+02
           5.200e+02
           5.200e+02
           5.200e+02
           5.200e+02
           5.200e+02
           5.200e+02
           5.200e+02
           5.200e+02
           5.200e+02
           5.200e+02
           5.200e+02
           5.200e+02
           5.200e+02
           5.200e+02
           5.200e+02
           5.200e+02
           5.200e+02
           5.200e+02
           5.200e+02
           5.200e+02
           5.200e+02
           5.200e+02
           5.200e+02
           5.200e+02
           5.200e+02
           5.200e+02
           5.200e+02
           5.200e+02
           5.200e+02
           5.200e+02
           5.200e+02
           5.200e+02
           5.200e+02
           5.200e+02
           5.200e+02
           5.200e+02
           5.200e+02
           5.200e+02
           5.200e+02
           5.200e+02
           5.200e+02
           5.200e+02
           5.200e+02
           5.200e+02
           5.200e+02
           5.200e+02
           5.200e+02
           5.200e+02
           5.200e+02
           5.200e+02
           5.200e+02
           5.200e+02
           5.200e+02
           5.200e+02
           5.200e+02
           5.200e+02
           5.200e+02
           5.200e+02
           5.200e+02
           5.200e+02
           5.200e+02
           5.200e+02
           5.200e+02
           5.200e+02
           5.200e+02
           5.200e+02
           5.200e+02
           5.200e+02
           5.200e+02
           5.200e+02
           5.200e+02
           5.200e+02
           5.200e+02
           5.200e+02
           5.200e+02
           5.200e+02
           5.200e+02
           5.200e+02
           5.200e+02
           5.200e+02
           5.200e+02
           5.200e+02
           5.200e+02
           5.200e+02
           5.200e+02
           5.200e+02
           5.200e+02
           5.200e+02
           5.200e+02
           5.200e+02
           5.200e+02
           5.200e+02
           5.200e+02
           5.200e+02
           5.200e+02
           5.200e+02
           5.200e+02
           5.200e+02
           5.200e+02
           5.200e+02
           5.200e+02
           5.200e+02
           5.200e+02
           5.200e+02
           5.200e+02
           5.200e+02
           5.200e+02
           5.200e+02
           5.200e+02
           5.200e+02
           5.200e+02
           5.200e+02
           5.200e+02
           5.200e+02
           5.200e+02
           5.200e+02
           5.200e+02
           5.200e+02
           5.200e+02
           5.200e+02
           5.200e+02
           5.200e+02
           5.200e+02
           5.200e+02
           5.200e+02
           5.200e+02
           5.200e+02
           5.200e+02
           5.200e+02
           5.200e+02
           5.200e+02
           5.200e+02
           5.200e+02
           5.200e+02
           5.200e+02
           5.200e+02
           5.200e+02
           5.200e+02
           5.200e+02
           5.200e+02
           5.200e+02
           5.200e+02
           5.200e+02
           5.200e+02
           5.200e+02
           5.200e+02
           5.200e+02
           5.200e+02
           5.200e+02
           5.200e+02
           5.200e+02
           5.200e+02
           5.200e+02
           5.200e+02
           5.200e+02
           5.200e+02
           5.200e+02
           5.200e+02
           5.200e+02
           5.200e+02
           5.200e+02
           5.200e+02
           5.200e+02
           5.200e+02
           5.200e+02
           5.200e+02
           5.200e+02
           5.200e+02
           5.200e+02
           5.200e+02
           5.200e+02
           5.200e+02
           5.200e+02
           5.200e+02
           5.200e+02
           5.200e+02
           5.200e+02
           5.200e+02
           5.200e+02
           5.200e+02
           5.200e+02
           5.200e+02
           5.200e+02
           5.200e+02
           5.200e+02
           5.200e+02
           5.200e+02
           5.200e+02
           5.200e+02
           5.200e+02
           5.200e+02
           5.200e+02
           5.200e+02
           5.200e+02
           5.200e+02
           5.200e+02
           5.200e+02
           5.200e+02
           5.200e+02
           5.200e+02
           5.200e+02
           5.200e+02
           5.200e+02
           5.200e+02
           5.200e+02
           5.200e+02
           5.200e+02
           5.200e+02
           5.200e+02
           5.200e+02
           5.200e+02
           5.200e+02
           5.200e+02
           5.200e+02
           5.200e+02
           5.200e+02
           5.200e+02
           5.200e+02
           5.200e+02
           5.200e+02
           5.200e+02
           5.200e+02
           5.200e+02
           5.200e+02
           5.200e+02
           5.200e+02
           5.200e+02
           5.200e+02
           5.200e+02
           5.200e+02
           5.200e+02
           5.200e+02
           5.200e+02
           5.200e+02
           5.200e+02
           5.200e+02
           5.200e+02
           5.200e+02
           5.200e+02
           5.200e+02
           5.200e+02
           5.200e+02
           5.200e+02
           5.200e+02
           5.200e+02
           5.200e+02
           5.200e+02
           5.200e+02
           5.200e+02
           5.200e+02
           5.200e+02
           5.200e+02
           5.200e+02
           5.200e+02
           5.200e+02
           5.200e+02
           5.200e+02
           5.200e+02
           5.200e+02
           5.200e+02
           5.200e+02
           5.200e+02
           5.200e+02
           5.200e+02
           5.200e+02
           5.200e+02
           5.200e+02
           5.200e+02
           5.200e+02
           5.200e+02
           5.200e+02
           5.200e+02
           5.200e+02
           5.200e+02
           5.200e+02
           5.200e+02
           5.200e+02
           5.200e+02
           5.200e+02
           5.200e+02
           5.200e+02
           5.200e+02
           5.200e+02
           5.200e+02
           5.200e+02
           5.200e+02
           5.200e+02
           5.200e+02
           5.200e+02
           5.200e+02
           5.200e+02
           5.200e+02
           5.200e+02
           5.200e+02
           5.200e+02
           5.200e+02
           5.200e+02
           5.200e+02
           5.200e+02
           5.200e+02
           5.200e+02
           5.200e+02
           5.200e+02
           5.200e+02
           5.200e+02
           5.200e+02
           5.200e+02
           5.200e+02
           5.200e+02
           5.200e+02
           5.200e+02
           5.200e+02
           5.200e+02
           5.200e+02
           5.200e+02
           5.200e+02
           5.200e+02
           5.200e+02
           5.200e+02
           5.200e+02
           5.200e+02
           5.200e+02
           5.200e+02
           5.200e+02
           5.200e+02
           5.200e+02
           5.200e+02
           5.200e+02
           5.200e+02
           5.200e+02
           5.200e+02
           5.200e+02
           5.200e+02
           5.200e+02
           5.200e+02
           5.200e+02
           5.200e+02
           5.200e+02
           5.200e+02
           5.200e+02
           5.200e+02
           5.200e+02
           5.200e+02
           5.200e+02
           5.200e+02
           5.200e+02
           5.200e+02
           5.200e+02
           5.200e+02
           5.200e+02