<?xml version="1.0"?>
<VTKFile type="UnstructuredGrid" version="0.1" byte_order="LittleEndian" compressor="vtkZLibDataCompressor">
  <UnstructuredGrid>
    <Piece NumberOfPoints="4" NumberOfCells="2">
      <Points>
        <DataArray type="Float32" NumberOfComponents="3" format="ascii">
          2.300e+04 -1.143e+04 -1.800e+04
          3.500e+04 -1.143e+04 -1.800e+04
          3.500e+04 -1.425e+03 -1.800e+04
          2.300e+04 -1.425e+03 -1.800e+04
        </DataArray>
      </Points>
      <Cells>
        <DataArray type="Int32" Name="connectivity" format="ascii">
           2 3 1            3 0 1         </DataArray>
        <DataArray type="Int32" Name="offsets" format="ascii">
           3
           6
        </DataArray>
        <DataArray type="UInt8" Name="types" format="ascii">
           5
           5
        </DataArray>
      </Cells>
      <CellData Scalars="TargetEyebox">
        <DataArray type="Float32" Name="TargetEyebox" format="ascii">
           5.000e+02
           5.000e+02
        </DataArray>
      </CellData>
    </Piece>
  </UnstructuredGrid>
</VTKFile>
